 argument  1 = /home/milias/work/git-projects/Molecular-and-Materials-Modeling-2025/molecular-modeling/themes/HF_molecule_properties/nwchem/ionization_energy/HF.mp2_daug-cc-pVDZ.nw



============================== echo of input deck ==============================
echo

start molecule

title "HF | Equilibrium Geometry | B3LYP/daug-cc-pVDZ"
charge 0

print low

geometry units angstroms print xyz autosym
F     -7.495632    1.264070   -0.005417
H     -8.290988    1.365470   -0.494508
end

basis
  * library d-aug-cc-pvdz
end

scf
  print low
end

mp2
  print low
end

task mp2 optimize
================================================================================


                                         
                                         


             Northwest Computational Chemistry Package (NWChem) 7.0.2
             --------------------------------------------------------


                    Environmental Molecular Sciences Laboratory
                       Pacific Northwest National Laboratory
                                Richland, WA 99352

                              Copyright (c) 1994-2020
                       Pacific Northwest National Laboratory
                            Battelle Memorial Institute

             NWChem is an open-source computational chemistry package
                        distributed under the terms of the
                      Educational Community License (ECL) 2.0
             A copy of the license is included with this distribution
                              in the LICENSE.TXT file

                                  ACKNOWLEDGMENT
                                  --------------

            This software and its documentation were developed at the
            EMSL at Pacific Northwest National Laboratory, a multiprogram
            national laboratory, operated for the U.S. Department of Energy
            by Battelle under Contract Number DE-AC05-76RL01830. Support
            for this work was provided by the Department of Energy Office
            of Biological and Environmental Research, Office of Basic
            Energy Sciences, and the Office of Advanced Scientific Computing.


           Job information
           ---------------

    hostname        = DESKTOP-7OTLCGO
    program         = /usr/bin/nwchem
    date            = Wed Aug 27 14:25:21 2025

    compiled        = Sat_Apr_09_17:12:10_2022
    source          = /build/nwchem-f1f4gx/nwchem-7.0.2/build-openmpi
    nwchem branch   = 7.0.2
    nwchem revision = N/A
    ga revision     = 5.8.1
    use scalapack   = T
    input           = /home/milias/work/git-projects/Molecular-and-Materials-Modeling-2025/molecular-modeling/themes/HF_molecule_properties/nwchem/ionization_energy/HF.mp2_daug-cc-pVDZ.nw
    prefix          = molecule.
    data base       = ./molecule.db
    status          = startup
    nproc           =        8
    time left       =     -1s



           Memory information
           ------------------

    heap     =   13107196 doubles =    100.0 Mbytes
    stack    =   13107201 doubles =    100.0 Mbytes
    global   =   26214400 doubles =    200.0 Mbytes (distinct from heap & stack)
    total    =   52428797 doubles =    400.0 Mbytes
    verify   = yes
    hardfail = no 


           Directory information
           ---------------------

  0 permanent = .
  0 scratch   = .




                                NWChem Input Module
                                -------------------


                  HF | Equilibrium Geometry | B3LYP/daug-cc-pVDZ
                  ----------------------------------------------

 Scaling coordinates for geometry "geometry" by  1.889725989
 (inverse scale =  0.529177249)


          ------
          auto-z
          ------
  no constraints, skipping    0.0000000000000000     
  no constraints, skipping    0.0000000000000000     


                             Geometry "geometry" -> ""
                             -------------------------

 Output coordinates in angstroms (scale by  1.889725989 to convert to a.u.)

  No.       Tag          Charge          X              Y              Z
 ---- ---------------- ---------- -------------- -------------- --------------
    1 F                    9.0000     0.00000000     0.00000000     0.09391928
    2 H                    1.0000     0.00000000     0.00000000    -0.84527353

      Atomic Mass 
      ----------- 

      F                 18.998400
      H                  1.007825


 Effective nuclear repulsion energy (a.u.)       5.0709451711

            Nuclear Dipole moment (a.u.) 
            ----------------------------
        X                 Y               Z
 ---------------- ---------------- ----------------
     0.0000000000     0.0000000000     0.0000000000

      Symmetry information
      --------------------

 Group name             C4v       
 Group number             18
 Group order               8
 No. of unique centers     2

      Symmetry unique atoms

     1    2



                                Z-matrix (autoz)
                                -------- 

 Units are Angstrom for bonds and degrees for angles

      Type          Name      I     J     K     L     M      Value
      ----------- --------  ----- ----- ----- ----- ----- ----------
    1 Stretch                  1     2                       0.93919


            XYZ format geometry
            -------------------
     2
 geometry
 F                     0.00000000     0.00000000     0.09391928
 H                     0.00000000     0.00000000    -0.84527353

 ==============================================================================
                                internuclear distances
 ------------------------------------------------------------------------------
       center one      |      center two      | atomic units |  angstroms
 ------------------------------------------------------------------------------
    2 H                |   1 F                |     1.77482  |     0.93919
 ------------------------------------------------------------------------------
                         number of included internuclear distances:          1
 ==============================================================================





 Summary of "ao basis" -> "" (cartesian)
 ------------------------------------------------------------------------------
       Tag                 Description            Shells   Functions and Types
 ---------------- ------------------------------  ------  ---------------------
 *                       d-aug-cc-pvdz                on all atoms 




                           NWChem Geometry Optimization
                           ----------------------------




                  HF | Equilibrium Geometry | B3LYP/daug-cc-pVDZ


  no constraints, skipping    0.0000000000000000     
 maximum gradient threshold         (gmax) =   0.000450
 rms gradient threshold             (grms) =   0.000300
 maximum cartesian step threshold   (xmax) =   0.001800
 rms cartesian step threshold       (xrms) =   0.001200
 fixed trust radius                (trust) =   0.300000
 maximum step size to saddle      (sadstp) =   0.100000
 energy precision                  (eprec) =   1.0D-07
 maximum number of steps          (nptopt) =   20
 initial hessian option           (inhess) =    0
 line search option               (linopt) =    1
 hessian update option            (modupd) =    1
 saddle point option              (modsad) =    0
 initial eigen-mode to follow     (moddir) =    0
 initial variable to follow       (vardir) =    0
 follow first negative mode     (firstneg) =    T
 apply conjugacy                    (opcg) =    F
 source of zmatrix                         =   autoz   


          -------------------
          Energy Minimization
          -------------------


 Names of Z-matrix variables 
    1         

 Variables with the same non-blank name are constrained to be equal


 Using diagonal initial Hessian 
 Scaling for Hessian diagonals: bonds = 1.00  angles = 0.25  torsions = 0.10

          --------
          Step   0
          --------
                      Basis "ao basis" -> "ao basis" (cartesian)
                      -----
  F (Fluorine)
  ------------
            Exponent  Coefficients 
       -------------- ---------------------------------------------------------
  1 S  1.47100000E+04  0.000721
  1 S  2.20700000E+03  0.005553
  1 S  5.02800000E+02  0.028267
  1 S  1.42600000E+02  0.106444
  1 S  4.64700000E+01  0.286814
  1 S  1.67000000E+01  0.448641
  1 S  6.35600000E+00  0.264761
  1 S  1.31600000E+00  0.015333

  2 S  1.47100000E+04 -0.000165
  2 S  2.20700000E+03 -0.001308
  2 S  5.02800000E+02 -0.006495
  2 S  1.42600000E+02 -0.026691
  2 S  4.64700000E+01 -0.073690
  2 S  1.67000000E+01 -0.170776
  2 S  6.35600000E+00 -0.112327
  2 S  1.31600000E+00  0.562814

  3 S  3.89700000E-01  1.000000

  4 S  9.86300000E-02  1.000000

  5 S  2.50000000E-02  1.000000

  6 P  2.26700000E+01  0.044878
  6 P  4.97700000E+00  0.235718
  6 P  1.34700000E+00  0.508521

  7 P  3.47100000E-01  1.000000

  8 P  8.50200000E-02  1.000000

  9 P  2.08000000E-02  1.000000

 10 D  1.64000000E+00  1.000000

 11 D  4.64000000E-01  1.000000

 12 D  1.31000000E-01  1.000000

  H (Hydrogen)
  ------------
            Exponent  Coefficients 
       -------------- ---------------------------------------------------------
  1 S  1.30100000E+01  0.019685
  1 S  1.96200000E+00  0.137977
  1 S  4.44600000E-01  0.478148

  2 S  1.22000000E-01  1.000000

  3 S  2.97400000E-02  1.000000

  4 S  7.25000000E-03  1.000000

  5 P  7.27000000E-01  1.000000

  6 P  1.41000000E-01  1.000000

  7 P  2.73000000E-02  1.000000



 Summary of "ao basis" -> "ao basis" (cartesian)
 ------------------------------------------------------------------------------
       Tag                 Description            Shells   Functions and Types
 ---------------- ------------------------------  ------  ---------------------
 F                       d-aug-cc-pvdz              12       35   5s4p3d
 H                       d-aug-cc-pvdz               7       13   4s3p


                                 NWChem SCF Module
                                 -----------------


                  HF | Equilibrium Geometry | B3LYP/daug-cc-pVDZ



  ao basis        = "ao basis"
  functions       =    48
  atoms           =     2
  closed shells   =     5
  open shells     =     0
  charge          =   0.00
  wavefunction    = RHF 
  input vectors   = atomic
  output vectors  = ./molecule.movecs
  use symmetry    = T
  symmetry adapt  = T


 Forming initial guess at       0.0s


 !! scf_movecs_sym_adapt:    6 vectors were symmetry contaminated

  Symmetry fudging

 !! scf_movecs_sym_adapt:    6 vectors were symmetry contaminated


 Starting SCF solution at       0.1s



       Final RHF  results 
       ------------------ 

         Total SCF energy =   -100.033138729823
      One-electron energy =   -150.275588195631
      Two-electron energy =     45.171504294697
 Nuclear repulsion energy =      5.070945171111

        Time for solution =      0.1s


                   NWChem MP2 Semi-direct Energy/Gradient Module
                   ---------------------------------------------


                  HF | Equilibrium Geometry | B3LYP/daug-cc-pVDZ


  Basis functions       =     48
  Molecular orbitals    =     48
  Frozen core           =      0
  Frozen virtuals       =      0
  Active alpha occupied =      5
  Active beta occupied  =      5
  Active alpha virtual  =     43
  Active beta virtual   =     43
  Use MO symmetry       = F
  Use skeleton AO sym   = T

  AO/Fock/Back tols     =   1.0D-09  1.0D-09  1.0D-09
  mp2_memr nvloc                     6
  nvloc new                     6
  vrange nnbf                  1176
  mp2_eaf for ta                     -1
  mp2_eaf for tb                     -1


          -------------------------------------------
          SCF energy                -100.033138729823
          Correlation energy          -0.234263846287
          Singlet pairs               -0.141588250851
          Triplet pairs               -0.092675595436
          Total MP2 energy          -100.267402576110
          -------------------------------------------



          ---------------------------------------------------
                    Spin Component Scaled (SCS) MP2
          Same spin pairs                     -0.061783730290
          Same spin scaling factor             0.333333333333
          Opposite spin pairs                 -0.172480115996
          Opposite spin scaling fact.          1.200000000000
          SCS-MP2 correlation energy          -0.227570715959
          Total SCS-MP2 energy              -100.260709445782
          ---------------------------------------------------

 SCF residual:    2.3352459538293634E-008

 CPHF converged to   3.1D-05 in    6 iters

                Dipole Moments (a.u.)
                --------------
         Nuclear       SCF       SCF+MP2
       ----------- ----------- -----------
 X       0.000000    0.000000   -0.000000
 Y       0.000000   -0.000000   -0.000000
 Z       0.000000   -0.772601   -0.720704



                         mp2 ENERGY GRADIENTS

    atom               coordinates                        gradient
                 x          y          z           x          y          z
   1 F       0.000000   0.000000   0.177482    0.000000   0.000000   0.017241
   2 H       0.000000   0.000000  -1.597335    0.000000   0.000000  -0.017241

  no constraints, skipping    0.0000000000000000     

@ Step       Energy      Delta E   Gmax     Grms     Xrms     Xmax   Walltime
@ ---- ---------------- -------- -------- -------- -------- -------- --------
@    0    -100.26740258  0.0D+00  0.01724  0.01724  0.00000  0.00000      0.5
                                                                    

  no constraints, skipping    0.0000000000000000     
  no constraints, skipping    0.0000000000000000     
  no constraints, skipping    0.0000000000000000     
                                 NWChem SCF Module
                                 -----------------


                  HF | Equilibrium Geometry | B3LYP/daug-cc-pVDZ



  ao basis        = "ao basis"
  functions       =    48
  atoms           =     2
  closed shells   =     5
  open shells     =     0
  charge          =   0.00
  wavefunction    = RHF 
  input vectors   = ./molecule.movecs
  output vectors  = ./molecule.movecs
  use symmetry    = T
  symmetry adapt  = T


 Forming initial guess at       0.5s


 Starting SCF solution at       0.5s



       Final RHF  results 
       ------------------ 

         Total SCF energy =   -100.034833925685
      One-electron energy =   -150.542432913109
      Two-electron energy =     45.278382900265
 Nuclear repulsion energy =      5.229216087159

        Time for solution =      0.1s


                   NWChem MP2 Semi-direct Energy/Gradient Module
                   ---------------------------------------------


                  HF | Equilibrium Geometry | B3LYP/daug-cc-pVDZ


  Basis functions       =     48
  Molecular orbitals    =     48
  Frozen core           =      0
  Frozen virtuals       =      0
  Active alpha occupied =      5
  Active beta occupied  =      5
  Active alpha virtual  =     43
  Active beta virtual   =     43
  Use MO symmetry       = F
  Use skeleton AO sym   = T

  AO/Fock/Back tols     =   1.0D-09  1.0D-09  1.0D-09
  mp2_memr nvloc                     6
  nvloc new                     6
  vrange nnbf                  1176


          -------------------------------------------
          SCF energy                -100.034833925685
          Correlation energy          -0.232659731186
          Singlet pairs               -0.140568818963
          Triplet pairs               -0.092090912223
          Total MP2 energy          -100.267493656871
          -------------------------------------------



          ---------------------------------------------------
                    Spin Component Scaled (SCS) MP2
          Same spin pairs                     -0.061393941482
          Same spin scaling factor             0.333333333333
          Opposite spin pairs                 -0.171265789704
          Opposite spin scaling fact.          1.200000000000
          SCS-MP2 correlation energy          -0.225983594805
          Total SCS-MP2 energy              -100.260817520490
          ---------------------------------------------------

 Line search: 
     step= 1.00 grad=-9.3D-04 hess= 8.4D-04 energy=   -100.267494 mode=downhill
 new step= 0.55                   predicted energy=   -100.267659
  no constraints, skipping    0.0000000000000000     
  no constraints, skipping    0.0000000000000000     
  no constraints, skipping    0.0000000000000000     

          --------
          Step   1
          --------
                                 NWChem SCF Module
                                 -----------------


                  HF | Equilibrium Geometry | B3LYP/daug-cc-pVDZ



  ao basis        = "ao basis"
  functions       =    48
  atoms           =     2
  closed shells   =     5
  open shells     =     0
  charge          =   0.00
  wavefunction    = RHF 
  input vectors   = ./molecule.movecs
  output vectors  = ./molecule.movecs
  use symmetry    = T
  symmetry adapt  = T


 Forming initial guess at       0.7s


 Starting SCF solution at       0.7s



       Final RHF  results 
       ------------------ 

         Total SCF energy =   -100.034293482640
      One-electron energy =   -150.421822994231
      Two-electron energy =     45.230021212755
 Nuclear repulsion energy =      5.157508298837

        Time for solution =      0.1s


                   NWChem MP2 Semi-direct Energy/Gradient Module
                   ---------------------------------------------


                  HF | Equilibrium Geometry | B3LYP/daug-cc-pVDZ


  Basis functions       =     48
  Molecular orbitals    =     48
  Frozen core           =      0
  Frozen virtuals       =      0
  Active alpha occupied =      5
  Active beta occupied  =      5
  Active alpha virtual  =     43
  Active beta virtual   =     43
  Use MO symmetry       = F
  Use skeleton AO sym   = T

  AO/Fock/Back tols     =   1.0D-09  1.0D-09  1.0D-09
  mp2_memr nvloc                     6
  nvloc new                     6
  vrange nnbf                  1176
  mp2_eaf for ta                     -1
  mp2_eaf for tb                     -1


          -------------------------------------------
          SCF energy                -100.034293482640
          Correlation energy          -0.233374159024
          Singlet pairs               -0.141021418980
          Triplet pairs               -0.092352740043
          Total MP2 energy          -100.267667641663
          -------------------------------------------



          ---------------------------------------------------
                    Spin Component Scaled (SCS) MP2
          Same spin pairs                     -0.061568493362
          Same spin scaling factor             0.333333333333
          Opposite spin pairs                 -0.171805665661
          Opposite spin scaling fact.          1.200000000000
          SCS-MP2 correlation energy          -0.226689629914
          Total SCS-MP2 energy              -100.260983112554
          ---------------------------------------------------

 SCF residual:    7.7711216350705384E-007

 CPHF converged to   3.0D-05 in    6 iters

                Dipole Moments (a.u.)
                --------------
         Nuclear       SCF       SCF+MP2
       ----------- ----------- -----------
 X       0.000000    0.000000    0.000000
 Y       0.000000   -0.000000    0.000000
 Z      -0.119153   -0.760355   -0.710557



                         mp2 ENERGY GRADIENTS

    atom               coordinates                        gradient
                 x          y          z           x          y          z
   1 F       0.000000   0.000000   0.162588    0.000000   0.000000   0.000217
   2 H       0.000000   0.000000  -1.582441    0.000000   0.000000  -0.000217

  no constraints, skipping    0.0000000000000000     

  Step       Energy      Delta E   Gmax     Grms     Xrms     Xmax   Walltime
  ---- ---------------- -------- -------- -------- -------- -------- --------
@    1    -100.26766764 -2.7D-04  0.00022  0.00022  0.00860  0.01489      1.1
                                     ok       ok                    

  no constraints, skipping    0.0000000000000000     
  no constraints, skipping    0.0000000000000000     
  no constraints, skipping    0.0000000000000000     
                                 NWChem SCF Module
                                 -----------------


                  HF | Equilibrium Geometry | B3LYP/daug-cc-pVDZ



  ao basis        = "ao basis"
  functions       =    48
  atoms           =     2
  closed shells   =     5
  open shells     =     0
  charge          =   0.00
  wavefunction    = RHF 
  input vectors   = ./molecule.movecs
  output vectors  = ./molecule.movecs
  use symmetry    = T
  symmetry adapt  = T


 Forming initial guess at       1.1s


 Starting SCF solution at       1.1s



       Final RHF  results 
       ------------------ 

         Total SCF energy =   -100.034304873879
      One-electron energy =   -150.423717221208
      Two-electron energy =     45.230780275530
 Nuclear repulsion energy =      5.158632071799

        Time for solution =      0.1s


                   NWChem MP2 Semi-direct Energy/Gradient Module
                   ---------------------------------------------


                  HF | Equilibrium Geometry | B3LYP/daug-cc-pVDZ


  Basis functions       =     48
  Molecular orbitals    =     48
  Frozen core           =      0
  Frozen virtuals       =      0
  Active alpha occupied =      5
  Active beta occupied  =      5
  Active alpha virtual  =     43
  Active beta virtual   =     43
  Use MO symmetry       = F
  Use skeleton AO sym   = T

  AO/Fock/Back tols     =   1.0D-09  1.0D-09  1.0D-09
  mp2_memr nvloc                     6
  nvloc new                     6
  vrange nnbf                  1176


          -------------------------------------------
          SCF energy                -100.034304873879
          Correlation energy          -0.233362803431
          Singlet pairs               -0.141014208455
          Triplet pairs               -0.092348594975
          Total MP2 energy          -100.267667677309
          -------------------------------------------



          ---------------------------------------------------
                    Spin Component Scaled (SCS) MP2
          Same spin pairs                     -0.061565729984
          Same spin scaling factor             0.333333333333
          Opposite spin pairs                 -0.171797073447
          Opposite spin scaling fact.          1.200000000000
          SCS-MP2 correlation energy          -0.226678398131
          Total SCS-MP2 energy              -100.260983272009
          ---------------------------------------------------

 Line search: 
     step= 1.00 grad=-8.3D-08 hess= 4.7D-08 energy=   -100.267668 mode=accept  
 new step= 1.00                   predicted energy=   -100.267668
  no constraints, skipping    0.0000000000000000     
  no constraints, skipping    0.0000000000000000     
  no constraints, skipping    0.0000000000000000     

          --------
          Step   2
          --------
                                 NWChem SCF Module
                                 -----------------


                  HF | Equilibrium Geometry | B3LYP/daug-cc-pVDZ



  ao basis        = "ao basis"
  functions       =    48
  atoms           =     2
  closed shells   =     5
  open shells     =     0
  charge          =   0.00
  wavefunction    = RHF 
  input vectors   = ./molecule.movecs
  output vectors  = ./molecule.movecs
  use symmetry    = T
  symmetry adapt  = T


  The SCF is already converged 

         Total SCF energy =   -100.034304873879

                   NWChem MP2 Semi-direct Energy/Gradient Module
                   ---------------------------------------------


                  HF | Equilibrium Geometry | B3LYP/daug-cc-pVDZ


  Basis functions       =     48
  Molecular orbitals    =     48
  Frozen core           =      0
  Frozen virtuals       =      0
  Active alpha occupied =      5
  Active beta occupied  =      5
  Active alpha virtual  =     43
  Active beta virtual   =     43
  Use MO symmetry       = F
  Use skeleton AO sym   = T

  AO/Fock/Back tols     =   1.0D-09  1.0D-09  1.0D-09
  mp2_memr nvloc                     6
  nvloc new                     6
  vrange nnbf                  1176
  mp2_eaf for ta                     -1
  mp2_eaf for tb                     -1


          -------------------------------------------
          SCF energy                -100.034304873879
          Correlation energy          -0.233362803431
          Singlet pairs               -0.141014208455
          Triplet pairs               -0.092348594975
          Total MP2 energy          -100.267667677309
          -------------------------------------------



          ---------------------------------------------------
                    Spin Component Scaled (SCS) MP2
          Same spin pairs                     -0.061565729984
          Same spin scaling factor             0.333333333333
          Opposite spin pairs                 -0.171797073447
          Opposite spin scaling fact.          1.200000000000
          SCS-MP2 correlation energy          -0.226678398131
          Total SCS-MP2 energy              -100.260983272009
          ---------------------------------------------------

 SCF residual:    2.6013045597783278E-007

 CPHF converged to   3.0D-05 in    6 iters

                Dipole Moments (a.u.)
                --------------
         Nuclear       SCF       SCF+MP2
       ----------- ----------- -----------
 X       0.000000    0.000000    0.000000
 Y       0.000000   -0.000000    0.000000
 Z      -0.120674   -0.760200   -0.710428



                         mp2 ENERGY GRADIENTS

    atom               coordinates                        gradient
                 x          y          z           x          y          z
   1 F       0.000000   0.000000   0.162397    0.000000   0.000000  -0.000013
   2 H       0.000000   0.000000  -1.582251    0.000000   0.000000   0.000013

  no constraints, skipping    0.0000000000000000     

  Step       Energy      Delta E   Gmax     Grms     Xrms     Xmax   Walltime
  ---- ---------------- -------- -------- -------- -------- -------- --------
@    2    -100.26766768 -3.6D-08  0.00001  0.00001  0.00011  0.00019      1.5
                                     ok       ok       ok       ok  


      ----------------------
      Optimization converged
      ----------------------


  Step       Energy      Delta E   Gmax     Grms     Xrms     Xmax   Walltime
  ---- ---------------- -------- -------- -------- -------- -------- --------
@    2    -100.26766768 -3.6D-08  0.00001  0.00001  0.00011  0.00019      1.5
                                     ok       ok       ok       ok  



                         Geometry "geometry" -> "geometry"
                         ---------------------------------

 Output coordinates in angstroms (scale by  1.889725989 to convert to a.u.)

  No.       Tag          Charge          X              Y              Z
 ---- ---------------- ---------- -------------- -------------- --------------
    1 F                    9.0000     0.00000000     0.00000000     0.08593704
    2 H                    1.0000     0.00000000     0.00000000    -0.83729129

      Atomic Mass 
      ----------- 

      F                 18.998400
      H                  1.007825


 Effective nuclear repulsion energy (a.u.)       5.1586320718

            Nuclear Dipole moment (a.u.) 
            ----------------------------
        X                 Y               Z
 ---------------- ---------------- ----------------
     0.0000000000     0.0000000000    -0.1206740121

      Symmetry information
      --------------------

 Group name             C4v       
 Group number             18
 Group order               8
 No. of unique centers     2

      Symmetry unique atoms

     1    2


                Final and change from initial internal coordinates
                --------------------------------------------------



                                Z-matrix (autoz)
                                -------- 

 Units are Angstrom for bonds and degrees for angles

      Type          Name      I     J     K     L     M      Value       Change
      ----------- --------  ----- ----- ----- ----- ----- ---------- ----------
    1 Stretch                  1     2                       0.92323   -0.01596



                                NWChem Input Module
                                -------------------




                                     CITATION
                                     --------
                Please cite the following reference when publishing
                           results obtained with NWChem:

          E. Aprà, E. J. Bylaska, W. A. de Jong, N. Govind, K. Kowalski,
       T. P. Straatsma, M. Valiev, H. J. J. van Dam, Y. Alexeev, J. Anchell,
       V. Anisimov, F. W. Aquino, R. Atta-Fynn, J. Autschbach, N. P. Bauman,
     J. C. Becca, D. E. Bernholdt, K. Bhaskaran-Nair, S. Bogatko, P. Borowski,
        J. Boschen, J. Brabec, A. Bruner, E. Cauët, Y. Chen, G. N. Chuev,
      C. J. Cramer, J. Daily, M. J. O. Deegan, T. H. Dunning Jr., M. Dupuis,
   K. G. Dyall, G. I. Fann, S. A. Fischer, A. Fonari, H. Früchtl, L. Gagliardi,
      J. Garza, N. Gawande, S. Ghosh, K. Glaesemann, A. W. Götz, J. Hammond,
       V. Helms, E. D. Hermes, K. Hirao, S. Hirata, M. Jacquelin, L. Jensen,
   B. G. Johnson, H. Jónsson, R. A. Kendall, M. Klemm, R. Kobayashi, V. Konkov,
      S. Krishnamoorthy, M. Krishnan, Z. Lin, R. D. Lins, R. J. Littlefield,
      A. J. Logsdail, K. Lopata, W. Ma, A. V. Marenich, J. Martin del Campo,
   D. Mejia-Rodriguez, J. E. Moore, J. M. Mullin, T. Nakajima, D. R. Nascimento,
    J. A. Nichols, P. J. Nichols, J. Nieplocha, A. Otero-de-la-Roza, B. Palmer,
    A. Panyala, T. Pirojsirikul, B. Peng, R. Peverati, J. Pittner, L. Pollack,
   R. M. Richard, P. Sadayappan, G. C. Schatz, W. A. Shelton, D. W. Silverstein,
   D. M. A. Smith, T. A. Soares, D. Song, M. Swart, H. L. Taylor, G. S. Thomas,
            V. Tipparaju, D. G. Truhlar, K. Tsemekhman, T. Van Voorhis,
     Á. Vázquez-Mayagoitia, P. Verma, O. Villa, A. Vishnu, K. D. Vogiatzis,
        D. Wang, J. H. Weare, M. J. Williamson, T. L. Windus, K. Woliński,
        A. T. Wong, Q. Wu, C. Yang, Q. Yu, M. Zacharias, Z. Zhang, Y. Zhao,
                                and R. J. Harrison
                        "NWChem: Past, present, and future
                         J. Chem. Phys. 152, 184102 (2020)
                               doi:10.1063/5.0004997

                                      AUTHORS
                                      -------
     E. Apra, E. J. Bylaska, N. Govind, K. Kowalski, M. Valiev, W. A. de Jong,
      T. P. Straatsma, H. J. J. van Dam, D. Wang, T. L. Windus, N. P. Bauman,
       A. Panyala, J. Hammond, J. Autschbach, K. Bhaskaran-Nair, J. Brabec,
    K. Lopata, S. A. Fischer, S. Krishnamoorthy, M. Jacquelin, W. Ma, M. Klemm,
       O. Villa, Y. Chen, V. Anisimov, F. Aquino, S. Hirata, M. T. Hackler,
           Eric Hermes, L. Jensen, J. E. Moore, J. C. Becca, V. Konjkov,
            D. Mejia-Rodriguez, T. Risthaus, M. Malagoli, A. Marenich,
   A. Otero-de-la-Roza, J. Mullin, P. Nichols, R. Peverati, J. Pittner, Y. Zhao,
        P.-D. Fan, A. Fonari, M. J. Williamson, R. J. Harrison, J. R. Rehr,
      M. Dupuis, D. Silverstein, D. M. A. Smith, J. Nieplocha, V. Tipparaju,
      M. Krishnan, B. E. Van Kuiken, A. Vazquez-Mayagoitia, M. Swart, Q. Wu,
   T. Van Voorhis, A. A. Auer, M. Nooijen, L. D. Crosby, E. Brown, G. Cisneros,
     G. I. Fann, H. Fruchtl, J. Garza, K. Hirao, R. A. Kendall, J. A. Nichols,
       K. Tsemekhman, K. Wolinski, J. Anchell, D. E. Bernholdt, P. Borowski,
       T. Clark, D. Clerc, H. Dachsel, M. J. O. Deegan, K. Dyall, D. Elwood,
      E. Glendening, M. Gutowski, A. C. Hess, J. Jaffe, B. G. Johnson, J. Ju,
        R. Kobayashi, R. Kutteh, Z. Lin, R. Littlefield, X. Long, B. Meng,
      T. Nakajima, S. Niu, L. Pollack, M. Rosing, K. Glaesemann, G. Sandrone,
      M. Stave, H. Taylor, G. Thomas, J. H. van Lenthe, A. T. Wong, Z. Zhang.

 Total times  cpu:        1.3s     wall:        1.5s
