 argument  1 = BeCl2_b3lyp_geomoptim.nw



============================== echo of input deck ==============================
echo

start molecule

title "BeCl2 | Equilibrium Geometry | B3LYP/6-31G(d)"
charge 0

print low

geometry units angstroms print xyz autosym
Be    -0.697491    1.128208    0.000000
Cl    -2.410908   -0.046133   -0.000000
Cl     0.980802   -0.095806    0.000000
end

basis
  * library 6-31G*
end

dft
  xc b3lyp
  mult 1
end

task dft optimize
================================================================================


                                         
                                         


             Northwest Computational Chemistry Package (NWChem) 7.2.2
             --------------------------------------------------------


                    Environmental Molecular Sciences Laboratory
                       Pacific Northwest National Laboratory
                                Richland, WA 99352

                              Copyright (c) 1994-2022
                       Pacific Northwest National Laboratory
                            Battelle Memorial Institute

             NWChem is an open-source computational chemistry package
                        distributed under the terms of the
                      Educational Community License (ECL) 2.0
             A copy of the license is included with this distribution
                              in the LICENSE.TXT file

                                  ACKNOWLEDGMENT
                                  --------------

            This software and its documentation were developed at the
            EMSL at Pacific Northwest National Laboratory, a multiprogram
            national laboratory, operated for the U.S. Department of Energy
            by Battelle under Contract Number DE-AC05-76RL01830. Support
            for this work was provided by the Department of Energy Office
            of Biological and Environmental Research, Office of Basic
            Energy Sciences, and the Office of Advanced Scientific Computing.


           Job information
           ---------------

    hostname        = DESKTOP-7OTLCGO
    program         = /usr/bin/nwchem
    date            = Thu Feb 19 12:33:50 2026

    compiled        = Mon_Apr_01_11:12:32_2024
    source          = /build/nwchem-qbYJLs/nwchem-7.2.2/build-openmpi
    nwchem branch   = 7.2.2
    nwchem revision = N/A
    ga revision     = N/A
    use scalapack   = T
    input           = BeCl2_b3lyp_geomoptim.nw
    prefix          = molecule.
    data base       = ./molecule.db
    status          = startup
    nproc           =        2
    time left       =     -1s



           Memory information
           ------------------

    heap     =   26214394 doubles =    200.0 Mbytes
    stack    =   26214399 doubles =    200.0 Mbytes
    global   =   52428800 doubles =    400.0 Mbytes (distinct from heap & stack)
    total    =  104857593 doubles =    800.0 Mbytes
    verify   = yes
    hardfail = no 


           Directory information
           ---------------------

  0 permanent = .
  0 scratch   = .




                                NWChem Input Module
                                -------------------


                   BeCl2 | Equilibrium Geometry | B3LYP/6-31G(d)
                   ---------------------------------------------

 Scaling coordinates for geometry "geometry" by  1.889725989
 (inverse scale =  0.529177249)


          ------
          auto-z
          ------
  no constraints, skipping    0.0000000000000000     
  no constraints, skipping    0.0000000000000000     


                             Geometry "geometry" -> ""
                             -------------------------

 Output coordinates in angstroms (scale by  1.889725989 to convert to a.u.)

  No.       Tag          Charge          X              Y              Z
 ---- ---------------- ---------- -------------- -------------- --------------
    1 Be                   4.0000     0.00000000     0.00000000     1.07306334
    2 Cl                  17.0000     1.69603686     0.00000000    -0.12624275
    3 Cl                  17.0000    -1.69603686     0.00000000    -0.12624275

      Atomic Mass 
      ----------- 

      Be                 9.012180
      Cl                34.968850


 Effective nuclear repulsion energy (a.u.)      79.7313951265

            Nuclear Dipole moment (a.u.) 
            ----------------------------
        X                 Y               Z
 ---------------- ---------------- ----------------
     0.0000000000     0.0000000000     0.0000000000

      Symmetry information
      --------------------

 Group name             C2v       
 Group number             16
 Group order               4
 No. of unique centers     2

      Symmetry unique atoms

     1    2



                                Z-matrix (autoz)
                                -------- 

 Units are Angstrom for bonds and degrees for angles

      Type          Name      I     J     K     L     M      Value
      ----------- --------  ----- ----- ----- ----- ----- ----------
    1 Stretch                  1     2                       2.07723
    2 Stretch                  1     3                       2.07723
    3 Bend                     2     1     3               109.47001


            XYZ format geometry
            -------------------
     3
 geometry
 Be                    0.00000000     0.00000000     1.07306334
 Cl                    1.69603686     0.00000000    -0.12624275
 Cl                   -1.69603686     0.00000000    -0.12624275

 ==============================================================================
                                internuclear distances
 ------------------------------------------------------------------------------
       center one      |      center two      | atomic units |  angstroms
 ------------------------------------------------------------------------------
    2 Cl               |   1 Be               |     3.92539  |     2.07723
    3 Cl               |   1 Be               |     3.92539  |     2.07723
 ------------------------------------------------------------------------------
                         number of included internuclear distances:          2
 ==============================================================================



 ==============================================================================
                                 internuclear angles
 ------------------------------------------------------------------------------
        center 1       |       center 2       |       center 3       |  degrees
 ------------------------------------------------------------------------------
    2 Cl               |   1 Be               |   3 Cl               |   109.47
 ------------------------------------------------------------------------------
                            number of included internuclear angles:          1
 ==============================================================================





 Summary of "ao basis" -> "" (cartesian)
 ------------------------------------------------------------------------------
       Tag                 Description            Shells   Functions and Types
 ---------------- ------------------------------  ------  ---------------------
 *                           6-31G*                   on all atoms 




                           NWChem Geometry Optimization
                           ----------------------------




                   BeCl2 | Equilibrium Geometry | B3LYP/6-31G(d)


  no constraints, skipping    0.0000000000000000     
 maximum gradient threshold         (gmax) =   0.000450
 rms gradient threshold             (grms) =   0.000300
 maximum cartesian step threshold   (xmax) =   0.001800
 rms cartesian step threshold       (xrms) =   0.001200
 fixed trust radius                (trust) =   0.300000
 maximum step size to saddle      (sadstp) =   0.100000
 energy precision                  (eprec) =   5.0D-06
 maximum number of steps          (nptopt) =   40
 initial hessian option           (inhess) =    0
 line search option               (linopt) =    1
 hessian update option            (modupd) =    1
 saddle point option              (modsad) =    0
 initial eigen-mode to follow     (moddir) =    0
 initial variable to follow       (vardir) =    0
 follow first negative mode     (firstneg) =    T
 apply conjugacy                    (opcg) =    F
 source of zmatrix                         =   autoz   


          -------------------
          Energy Minimization
          -------------------


 Names of Z-matrix variables 
    1              2              3         

 Variables with the same non-blank name are constrained to be equal


 Using old Hessian from previous optimization

          --------
          Step   0
          --------

                                 NWChem DFT Module
                                 -----------------


                   BeCl2 | Equilibrium Geometry | B3LYP/6-31G(d)


                      Basis "ao basis" -> "ao basis" (cartesian)
                      -----
  Be (Beryllium)
  --------------
            Exponent  Coefficients 
       -------------- ---------------------------------------------------------
  1 S  1.26458570E+03  0.001945
  1 S  1.89936810E+02  0.014835
  1 S  4.31590890E+01  0.072091
  1 S  1.20986630E+01  0.237154
  1 S  3.80632320E+00  0.469199
  1 S  1.27289030E+00  0.356520

  2 S  3.19646310E+00 -0.112649
  2 S  7.47813300E-01 -0.229506
  2 S  2.19966300E-01  1.186917

  3 P  3.19646310E+00  0.055980
  3 P  7.47813300E-01  0.261551
  3 P  2.19966300E-01  0.793972

  4 S  8.23099000E-02  1.000000

  5 P  8.23099000E-02  1.000000

  6 D  4.00000000E-01  1.000000

  Cl (Chlorine)
  -------------
            Exponent  Coefficients 
       -------------- ---------------------------------------------------------
  1 S  2.51801000E+04  0.001833
  1 S  3.78035000E+03  0.014034
  1 S  8.60474000E+02  0.069097
  1 S  2.42145000E+02  0.237452
  1 S  7.73349000E+01  0.483034
  1 S  2.62470000E+01  0.339856

  2 S  4.91765000E+02 -0.002297
  2 S  1.16984000E+02 -0.030714
  2 S  3.74153000E+01 -0.112528
  2 S  1.37834000E+01  0.045016
  2 S  5.45215000E+00  0.589353
  2 S  2.22588000E+00  0.465206

  3 P  4.91765000E+02  0.003989
  3 P  1.16984000E+02  0.030318
  3 P  3.74153000E+01  0.129880
  3 P  1.37834000E+01  0.327951
  3 P  5.45215000E+00  0.453527
  3 P  2.22588000E+00  0.252154

  4 S  3.18649000E+00 -0.251830
  4 S  1.14427000E+00  0.061589
  4 S  4.20377000E-01  1.060180

  5 P  3.18649000E+00 -0.014299
  5 P  1.14427000E+00  0.323572
  5 P  4.20377000E-01  0.743507

  6 S  1.42657000E-01  1.000000

  7 P  1.42657000E-01  1.000000

  8 D  7.50000000E-01  1.000000



 Summary of "ao basis" -> "ao basis" (cartesian)
 ------------------------------------------------------------------------------
       Tag                 Description            Shells   Functions and Types
 ---------------- ------------------------------  ------  ---------------------
 Be                          6-31G*                  6       15   3s2p1d
 Cl                          6-31G*                  8       19   4s3p1d



  Caching 1-el integrals 
  WARNING: movecs_in_org=atomic not equal to movecs_in=./molecule.movecs
   Time after variat. SCF:      0.1
   Time prior to 1st pass:      0.1

           Memory utilization after 1st SCF pass: 
           Heap Space remaining (MW):       25.49            25490554
          Stack Space remaining (MW):       26.21            26213972

   convergence    iter        energy       DeltaE   RMS-Dens  Diis-err    time
 ---------------- ----- ----------------- --------- --------- ---------  ------
 d= 0,ls=0.0,diis     1   -935.1510655718 -1.01D+03  2.60D-02  5.45D-01     0.2
 d= 0,ls=0.0,diis     2   -935.0794210510  7.16D-02  1.81D-02  7.93D-01     0.2
 d= 0,ls=0.0,diis     3   -935.2117216704 -1.32D-01  4.11D-03  4.62D-02     0.2
 d= 0,ls=0.0,diis     4   -935.2202350981 -8.51D-03  7.55D-04  1.10D-03     0.3
 d= 0,ls=0.0,diis     5   -935.2203854005 -1.50D-04  9.42D-05  3.52D-05     0.3
  Resetting Diis
 d= 0,ls=0.0,diis     6   -935.2203901221 -4.72D-06  3.00D-05  1.91D-06     0.3
 d= 0,ls=0.0,diis     7   -935.2203905499 -4.28D-07  2.25D-06  7.68D-09     0.3


         Total DFT energy =     -935.220390549895
      One electron energy =    -1449.950123691111
           Coulomb energy =      494.338185110119
    Exchange-Corr. energy =      -59.339847095431
 Nuclear repulsion energy =       79.731395126529

 Numeric. integr. density =       38.000002409666

     Total iterative time =      0.2s



                  Occupations of the irreducible representations
                  ----------------------------------------------

                     irrep           alpha         beta
                     --------     --------     --------
                     a1                8.0          8.0
                     a2                2.0          2.0
                     b1                7.0          7.0
                     b2                2.0          2.0



                         DFT ENERGY GRADIENTS

    atom               coordinates                        gradient
                 x          y          z           x          y          z
   1 Be      0.000000   0.000000   2.027796    0.000000   0.000000   0.090949
   2 Cl      3.205045   0.000000  -0.238564    0.032269   0.000000  -0.045474
   3 Cl     -3.205045   0.000000  -0.238564   -0.032269  -0.000000  -0.045474

  no constraints, skipping    0.0000000000000000     

@ Step       Energy      Delta E   Gmax     Grms     Xrms     Xmax   Walltime
@ ---- ---------------- -------- -------- -------- -------- -------- --------
@    0    -935.22039055  0.0D+00  0.05260  0.04834  0.00000  0.00000      0.6
                                                                    

 Restricting large step in mode    1 eval= 1.4D-02 step= 2.7D+00 new= 3.0D-01
 Restricting large step in mode    2 eval= 2.0D-01 step=-3.7D-01 new=-3.0D-01
  no constraints, skipping    0.0000000000000000     
  no constraints, skipping    0.0000000000000000     
  no constraints, skipping    0.0000000000000000     
  no constraints, skipping    0.0000000000000000     
  no constraints, skipping    0.0000000000000000     

                                 NWChem DFT Module
                                 -----------------


                   BeCl2 | Equilibrium Geometry | B3LYP/6-31G(d)



  Caching 1-el integrals 
   Time after variat. SCF:      0.6
   Time prior to 1st pass:      0.6

           Memory utilization after 1st SCF pass: 
           Heap Space remaining (MW):       25.49            25490554
          Stack Space remaining (MW):       26.21            26213972

   convergence    iter        energy       DeltaE   RMS-Dens  Diis-err    time
 ---------------- ----- ----------------- --------- --------- ---------  ------
 d= 0,ls=0.0,diis     1   -935.2474626080 -1.02D+03  4.37D-03  1.26D-02     0.7
 d= 0,ls=0.0,diis     2   -935.2506007477 -3.14D-03  1.20D-03  2.00D-03     0.7
 d= 0,ls=0.0,diis     3   -935.2508476345 -2.47D-04  4.20D-04  4.21D-04     0.8
 d= 0,ls=0.0,diis     4   -935.2509067267 -5.91D-05  1.26D-04  4.11D-05     0.8
 d= 0,ls=0.0,diis     5   -935.2509130698 -6.34D-06  2.07D-05  8.26D-07     0.8
 d= 0,ls=0.0,diis     6   -935.2509132247 -1.55D-07  2.87D-06  2.06D-08     0.8


         Total DFT energy =     -935.250913224732
      One electron energy =    -1454.210504059171
           Coulomb energy =      496.401732171910
    Exchange-Corr. energy =      -59.383589108981
 Nuclear repulsion energy =       81.941447771510

 Numeric. integr. density =       37.999999426076

     Total iterative time =      0.2s



                  Occupations of the irreducible representations
                  ----------------------------------------------

                     irrep           alpha         beta
                     --------     --------     --------
                     a1                8.0          8.0
                     a2                2.0          2.0
                     b1                7.0          7.0
                     b2                2.0          2.0

 Line search: 
     step= 1.00 grad=-3.4D-02 hess= 3.4D-03 energy=   -935.250913 mode=restrict
 new step= 4.00                   predicted energy=   -935.301661
  no constraints, skipping    0.0000000000000000     
  no constraints, skipping    0.0000000000000000     
  no constraints, skipping    0.0000000000000000     
  no constraints, skipping    0.0000000000000000     
  no constraints, skipping    0.0000000000000000     
  no constraints, skipping    0.0000000000000000     

          --------
          Step   1
          --------

                                 NWChem DFT Module
                                 -----------------


                   BeCl2 | Equilibrium Geometry | B3LYP/6-31G(d)



  Caching 1-el integrals 
   Time after variat. SCF:      0.8
   Time prior to 1st pass:      0.8

           Memory utilization after 1st SCF pass: 
           Heap Space remaining (MW):       25.49            25490554
          Stack Space remaining (MW):       26.21            26213972

   convergence    iter        energy       DeltaE   RMS-Dens  Diis-err    time
 ---------------- ----- ----------------- --------- --------- ---------  ------
 d= 0,ls=0.0,diis     1   -935.2127209838 -1.03D+03  1.80D-02  1.86D-01     1.0
 d= 0,ls=0.0,diis     2   -935.2410672563 -2.83D-02  7.04D-03  7.33D-02     1.0
 d= 0,ls=0.0,diis     3   -935.2509690945 -9.90D-03  1.94D-03  8.82D-03     1.0
 d= 0,ls=0.0,diis     4   -935.2522278886 -1.26D-03  4.92D-04  6.48D-04     1.0
 d= 0,ls=0.0,diis     5   -935.2523142338 -8.63D-05  3.30D-05  1.55D-06     1.0
 d= 0,ls=0.0,diis     6   -935.2523144499 -2.16D-07  6.42D-06  1.29D-07     1.1


         Total DFT energy =     -935.252314449902
      One electron energy =    -1476.915090229901
           Coulomb energy =      507.680523474767
    Exchange-Corr. energy =      -59.574208854242
 Nuclear repulsion energy =       93.556461159475

 Numeric. integr. density =       38.000000823866

     Total iterative time =      0.2s



                  Occupations of the irreducible representations
                  ----------------------------------------------

                     irrep           alpha         beta
                     --------     --------     --------
                     a1                8.0          8.0
                     a2                2.0          2.0
                     b1                7.0          7.0
                     b2                2.0          2.0



                         DFT ENERGY GRADIENTS

    atom               coordinates                        gradient
                 x          y          z           x          y          z
   1 Be      0.000000   0.000000   1.122527    0.000000   0.000000  -0.040009
   2 Cl      2.933111   0.000000   0.214070   -0.111263   0.000000   0.020005
   3 Cl     -2.933111   0.000000   0.214070    0.111263   0.000000   0.020005

  no constraints, skipping    0.0000000000000000     

  Step       Energy      Delta E   Gmax     Grms     Xrms     Xmax   Walltime
  ---- ---------------- -------- -------- -------- -------- -------- --------
@    1    -935.25231445 -3.2D-02  0.11220  0.09252  0.39779  0.96153      1.4
                                                                    

 Restricting large step in mode    1 eval= 1.4D-02 step= 1.5D+00 new= 3.0D-01
 Restricting large step in mode    2 eval= 1.9D-01 step= 8.2D-01 new= 3.0D-01
 Restricting overall step due to large component. alpha=  0.99
  no constraints, skipping    0.0000000000000000     
  no constraints, skipping    0.0000000000000000     
  no constraints, skipping    0.0000000000000000     
  no constraints, skipping    0.0000000000000000     
  no constraints, skipping    0.0000000000000000     

                                 NWChem DFT Module
                                 -----------------


                   BeCl2 | Equilibrium Geometry | B3LYP/6-31G(d)



  Caching 1-el integrals 
   Time after variat. SCF:      1.4
   Time prior to 1st pass:      1.4

           Memory utilization after 1st SCF pass: 
           Heap Space remaining (MW):       25.49            25490554
          Stack Space remaining (MW):       26.21            26213972

   convergence    iter        energy       DeltaE   RMS-Dens  Diis-err    time
 ---------------- ----- ----------------- --------- --------- ---------  ------
 d= 0,ls=0.0,diis     1   -935.2806332247 -1.02D+03  6.06D-03  2.91D-02     1.5
 d= 0,ls=0.0,diis     2   -935.2857493411 -5.12D-03  2.15D-03  5.35D-03     1.5
 d= 0,ls=0.0,diis     3   -935.2863239728 -5.75D-04  8.13D-04  1.68D-03     1.5
 d= 0,ls=0.0,diis     4   -935.2865782894 -2.54D-04  1.69D-04  8.05D-05     1.6
 d= 0,ls=0.0,diis     5   -935.2865895390 -1.12D-05  1.53D-05  5.65D-07     1.6
 d= 0,ls=0.0,diis     6   -935.2865896209 -8.19D-08  2.62D-06  8.78D-09     1.6


         Total DFT energy =     -935.286589620875
      One electron energy =    -1463.042421816823
           Coulomb energy =      500.649709829930
    Exchange-Corr. energy =      -59.497238872912
 Nuclear repulsion energy =       86.603361238930

 Numeric. integr. density =       38.000000303749

     Total iterative time =      0.2s



                  Occupations of the irreducible representations
                  ----------------------------------------------

                     irrep           alpha         beta
                     --------     --------     --------
                     a1                8.0          8.0
                     a2                2.0          2.0
                     b1                7.0          7.0
                     b2                2.0          2.0

 Line search: 
     step= 0.99 grad=-5.4D-02 hess= 2.0D-02 energy=   -935.286590 mode=downhill
 new step= 1.37                   predicted energy=   -935.289357
  no constraints, skipping    0.0000000000000000     
  no constraints, skipping    0.0000000000000000     
  no constraints, skipping    0.0000000000000000     
  no constraints, skipping    0.0000000000000000     
  no constraints, skipping    0.0000000000000000     

          --------
          Step   2
          --------

                                 NWChem DFT Module
                                 -----------------


                   BeCl2 | Equilibrium Geometry | B3LYP/6-31G(d)



  Caching 1-el integrals 
   Time after variat. SCF:      1.6
   Time prior to 1st pass:      1.6

           Memory utilization after 1st SCF pass: 
           Heap Space remaining (MW):       25.49            25490554
          Stack Space remaining (MW):       26.21            26213972

   convergence    iter        energy       DeltaE   RMS-Dens  Diis-err    time
 ---------------- ----- ----------------- --------- --------- ---------  ------
 d= 0,ls=0.0,diis     1   -935.2906379122 -1.02D+03  2.13D-03  3.38D-03     1.7
 d= 0,ls=0.0,diis     2   -935.2912774116 -6.39D-04  7.05D-04  6.02D-04     1.7
 d= 0,ls=0.0,diis     3   -935.2913449759 -6.76D-05  2.63D-04  1.72D-04     1.8
 d= 0,ls=0.0,diis     4   -935.2913707480 -2.58D-05  6.13D-05  1.09D-05     1.8
 d= 0,ls=0.0,diis     5   -935.2913722941 -1.55D-06  5.75D-06  6.77D-08     1.8
 d= 0,ls=0.0,diis     6   -935.2913723047 -1.06D-08  9.59D-07  1.34D-09     1.8


         Total DFT energy =     -935.291372304708
      One electron energy =    -1458.429542508808
           Coulomb energy =      498.316595187272
    Exchange-Corr. energy =      -59.472217607770
 Nuclear repulsion energy =       84.293792624597

 Numeric. integr. density =       38.000000126763

     Total iterative time =      0.2s



                  Occupations of the irreducible representations
                  ----------------------------------------------

                     irrep           alpha         beta
                     --------     --------     --------
                     a1                8.0          8.0
                     a2                2.0          2.0
                     b1                7.0          7.0
                     b2                2.0          2.0



                         DFT ENERGY GRADIENTS

    atom               coordinates                        gradient
                 x          y          z           x          y          z
   1 Be      0.000000   0.000000   0.942332    0.000000   0.000000   0.007226
   2 Cl      3.298270   0.000000   0.304168   -0.012553   0.000000  -0.003613
   3 Cl     -3.298270   0.000000   0.304168    0.012553   0.000000  -0.003613

  no constraints, skipping    0.0000000000000000     

  Step       Energy      Delta E   Gmax     Grms     Xrms     Xmax   Walltime
  ---- ---------------- -------- -------- -------- -------- -------- --------
@    2    -935.29137230 -3.9D-02  0.01164  0.01129  0.18690  0.36038      2.1
                                                                    

 Restricting large step in mode    1 eval= 1.5D-02 step= 6.6D-01 new= 3.0D-01
 Restricting overall step due to large component. alpha=  0.99
  no constraints, skipping    0.0000000000000000     
  no constraints, skipping    0.0000000000000000     
  no constraints, skipping    0.0000000000000000     
  no constraints, skipping    0.0000000000000000     
  no constraints, skipping    0.0000000000000000     

                                 NWChem DFT Module
                                 -----------------


                   BeCl2 | Equilibrium Geometry | B3LYP/6-31G(d)



  Caching 1-el integrals 
   Time after variat. SCF:      2.1
   Time prior to 1st pass:      2.1

           Memory utilization after 1st SCF pass: 
           Heap Space remaining (MW):       25.49            25490554
          Stack Space remaining (MW):       26.21            26213972

   convergence    iter        energy       DeltaE   RMS-Dens  Diis-err    time
 ---------------- ----- ----------------- --------- --------- ---------  ------
 d= 0,ls=0.0,diis     1   -935.2918268091 -1.02D+03  3.55D-03  9.79D-03     2.2
 d= 0,ls=0.0,diis     2   -935.2942024408 -2.38D-03  4.32D-04  2.16D-04     2.2
 d= 0,ls=0.0,diis     3   -935.2942335632 -3.11D-05  1.59D-04  6.96D-05     2.3
 d= 0,ls=0.0,diis     4   -935.2942432867 -9.72D-06  2.67D-05  1.26D-06     2.3
 d= 0,ls=0.0,diis     5   -935.2942434197 -1.33D-07  9.69D-06  3.03D-07     2.3


         Total DFT energy =     -935.294243419698
      One electron energy =    -1456.032654805089
           Coulomb energy =      497.092584767790
    Exchange-Corr. energy =      -59.464291112870
 Nuclear repulsion energy =       83.110117730472

 Numeric. integr. density =       37.999999944951

     Total iterative time =      0.2s



                  Occupations of the irreducible representations
                  ----------------------------------------------

                     irrep           alpha         beta
                     --------     --------     --------
                     a1                8.0          8.0
                     a2                2.0          2.0
                     b1                7.0          7.0
                     b2                2.0          2.0

 Line search: 
     step= 0.99 grad=-3.8D-03 hess= 9.2D-04 energy=   -935.294243 mode=downhill
 new step= 2.07                   predicted energy=   -935.295301
  no constraints, skipping    0.0000000000000000     
  no constraints, skipping    0.0000000000000000     
  no constraints, skipping    0.0000000000000000     
  no constraints, skipping    0.0000000000000000     
  no constraints, skipping    0.0000000000000000     

          --------
          Step   3
          --------

                                 NWChem DFT Module
                                 -----------------


                   BeCl2 | Equilibrium Geometry | B3LYP/6-31G(d)



  Caching 1-el integrals 
   Time after variat. SCF:      2.3
   Time prior to 1st pass:      2.3

           Memory utilization after 1st SCF pass: 
           Heap Space remaining (MW):       25.49            25490554
          Stack Space remaining (MW):       26.21            26213972

   convergence    iter        energy       DeltaE   RMS-Dens  Diis-err    time
 ---------------- ----- ----------------- --------- --------- ---------  ------
 d= 0,ls=0.0,diis     1   -935.2926655978 -1.02D+03  4.14D-03  1.13D-02     2.4
 d= 0,ls=0.0,diis     2   -935.2954248623 -2.76D-03  4.71D-04  2.45D-04     2.4
 d= 0,ls=0.0,diis     3   -935.2954602813 -3.54D-05  1.75D-04  8.16D-05     2.5
 d= 0,ls=0.0,diis     4   -935.2954714464 -1.12D-05  3.86D-05  2.56D-06     2.5
 d= 0,ls=0.0,diis     5   -935.2954717355 -2.89D-07  1.32D-05  6.33D-07     2.5
 d= 0,ls=0.0,diis     6   -935.2954718315 -9.60D-08  1.06D-06  1.88D-09     2.5


         Total DFT energy =     -935.295471831543
      One electron energy =    -1454.125362159082
           Coulomb energy =      496.122564704432
    Exchange-Corr. energy =      -59.455723175100
 Nuclear repulsion energy =       82.163048798207

 Numeric. integr. density =       37.999999923831

     Total iterative time =      0.2s



                  Occupations of the irreducible representations
                  ----------------------------------------------

                     irrep           alpha         beta
                     --------     --------     --------
                     a1                8.0          8.0
                     a2                2.0          2.0
                     b1                7.0          7.0
                     b2                2.0          2.0



                         DFT ENERGY GRADIENTS

    atom               coordinates                        gradient
                 x          y          z           x          y          z
   1 Be      0.000000   0.000000   0.576397    0.000000   0.000000   0.001539
   2 Cl      3.413378   0.000000   0.487135    0.001654   0.000000  -0.000769
   3 Cl     -3.413378   0.000000   0.487135   -0.001654   0.000000  -0.000769

  no constraints, skipping    0.0000000000000000     

  Step       Energy      Delta E   Gmax     Grms     Xrms     Xmax   Walltime
  ---- ---------------- -------- -------- -------- -------- -------- --------
@    3    -935.29547183 -4.1D-03  0.00167  0.00156  0.15928  0.36599      2.8
                                                                    

  no constraints, skipping    0.0000000000000000     
  no constraints, skipping    0.0000000000000000     
  no constraints, skipping    0.0000000000000000     
  no constraints, skipping    0.0000000000000000     

                                 NWChem DFT Module
                                 -----------------


                   BeCl2 | Equilibrium Geometry | B3LYP/6-31G(d)



  Caching 1-el integrals 
   Time after variat. SCF:      2.8
   Time prior to 1st pass:      2.8

           Memory utilization after 1st SCF pass: 
           Heap Space remaining (MW):       25.49            25490554
          Stack Space remaining (MW):       26.21            26213972

   convergence    iter        energy       DeltaE   RMS-Dens  Diis-err    time
 ---------------- ----- ----------------- --------- --------- ---------  ------
 d= 0,ls=0.0,diis     1   -935.2953529153 -1.02D+03  1.13D-03  7.83D-04     2.9
 d= 0,ls=0.0,diis     2   -935.2955447027 -1.92D-04  1.32D-04  1.88D-05     2.9
 d= 0,ls=0.0,diis     3   -935.2955470119 -2.31D-06  5.68D-05  8.28D-06     3.0
 d= 0,ls=0.0,diis     4   -935.2955482100 -1.20D-06  1.44D-05  4.70D-07     3.0
 d= 0,ls=0.0,diis     5   -935.2955482776 -6.76D-08  3.40D-06  4.29D-08     3.0


         Total DFT energy =     -935.295548277585
      One electron energy =    -1454.387743244621
           Coulomb energy =      496.254594781001
    Exchange-Corr. energy =      -59.457559634310
 Nuclear repulsion energy =       82.295159820344

 Numeric. integr. density =       37.999999981090

     Total iterative time =      0.2s



                  Occupations of the irreducible representations
                  ----------------------------------------------

                     irrep           alpha         beta
                     --------     --------     --------
                     a1                8.0          8.0
                     a2                2.0          2.0
                     b1                7.0          7.0
                     b2                2.0          2.0

 Line search: 
     step= 1.00 grad=-1.3D-04 hess= 5.7D-05 energy=   -935.295548 mode=downhill
 new step= 1.17                   predicted energy=   -935.295550
  no constraints, skipping    0.0000000000000000     
  no constraints, skipping    0.0000000000000000     
  no constraints, skipping    0.0000000000000000     
  no constraints, skipping    0.0000000000000000     
  no constraints, skipping    0.0000000000000000     
  no constraints, skipping    0.0000000000000000     
  no constraints, skipping    0.0000000000000000     
  no constraints, skipping    0.0000000000000000     

          --------
          Step   4
          --------

                                 NWChem DFT Module
                                 -----------------


                   BeCl2 | Equilibrium Geometry | B3LYP/6-31G(d)



  Caching 1-el integrals 
   Time after variat. SCF:      3.0
   Time prior to 1st pass:      3.0

           Memory utilization after 1st SCF pass: 
           Heap Space remaining (MW):       25.49            25490554
          Stack Space remaining (MW):       26.21            26213972

   convergence    iter        energy       DeltaE   RMS-Dens  Diis-err    time
 ---------------- ----- ----------------- --------- --------- ---------  ------
 d= 0,ls=0.0,diis     1   -935.2955441039 -1.02D+03  1.96D-04  2.35D-05     3.1
 d= 0,ls=0.0,diis     2   -935.2955498505 -5.75D-06  2.17D-05  5.19D-07     3.1
 d= 0,ls=0.0,diis     3   -935.2955499222 -7.17D-08  8.53D-06  1.90D-07     3.2


         Total DFT energy =     -935.295549922193
      One electron energy =    -1454.436137118800
           Coulomb energy =      496.278163043419
    Exchange-Corr. energy =      -59.457773124102
 Nuclear repulsion energy =       82.320197277290

 Numeric. integr. density =       37.999999984998

     Total iterative time =      0.1s



                  Occupations of the irreducible representations
                  ----------------------------------------------

                     irrep           alpha         beta
                     --------     --------     --------
                     a1                8.0          8.0
                     a2                2.0          2.0
                     b1                7.0          7.0
                     b2                2.0          2.0



                         DFT ENERGY GRADIENTS

    atom               coordinates                        gradient
                 x          y          z           x          y          z
   1 Be      0.000000   0.000000   0.515589    0.000000   0.000000  -0.000035
   2 Cl      3.407426   0.000000   0.517539    0.000186   0.000000   0.000017
   3 Cl     -3.407426   0.000000   0.517539   -0.000186   0.000000   0.000017

  no constraints, skipping    0.0000000000000000     

  Step       Energy      Delta E   Gmax     Grms     Xrms     Xmax   Walltime
  ---- ---------------- -------- -------- -------- -------- -------- --------
@    4    -935.29554992 -7.8D-05  0.00019  0.00015  0.02500  0.06073      3.4
                                     ok       ok                    

  no constraints, skipping    0.0000000000000000     
  no constraints, skipping    0.0000000000000000     
  no constraints, skipping    0.0000000000000000     
  no constraints, skipping    0.0000000000000000     
  no constraints, skipping    0.0000000000000000     
  no constraints, skipping    0.0000000000000000     
  no constraints, skipping    0.0000000000000000     
  no constraints, skipping    0.0000000000000000     

                                 NWChem DFT Module
                                 -----------------


                   BeCl2 | Equilibrium Geometry | B3LYP/6-31G(d)



  Caching 1-el integrals 
   Time after variat. SCF:      3.5
   Time prior to 1st pass:      3.5

           Memory utilization after 1st SCF pass: 
           Heap Space remaining (MW):       25.49            25490554
          Stack Space remaining (MW):       26.21            26213972

   convergence    iter        energy       DeltaE   RMS-Dens  Diis-err    time
 ---------------- ----- ----------------- --------- --------- ---------  ------
 d= 0,ls=0.0,diis     1   -935.2955499401 -1.02D+03  3.78D-05  8.45D-07     3.6
 d= 0,ls=0.0,diis     2   -935.2955501370 -1.97D-07  6.68D-06  4.38D-08     3.6


         Total DFT energy =     -935.295550136970
      One electron energy =    -1454.475640701217
           Coulomb energy =      496.298793688336
    Exchange-Corr. energy =      -59.458078786176
 Nuclear repulsion energy =       82.339375662087

 Numeric. integr. density =       37.999999987587

     Total iterative time =      0.1s



                  Occupations of the irreducible representations
                  ----------------------------------------------

                     irrep           alpha         beta
                     --------     --------     --------
                     a1                8.0          8.0
                     a2                2.0          2.0
                     b1                7.0          7.0
                     b2                2.0          2.0

 Line search: 
     step= 1.00 grad=-3.8D-07 hess= 1.6D-07 energy=   -935.295550 mode=accept  
 new step= 1.00                   predicted energy=   -935.295550
  no constraints, skipping    0.0000000000000000     
  no constraints, skipping    0.0000000000000000     
  no constraints, skipping    0.0000000000000000     
  no constraints, skipping    0.0000000000000000     
  no constraints, skipping    0.0000000000000000     
  no constraints, skipping    0.0000000000000000     
  no constraints, skipping    0.0000000000000000     
  no constraints, skipping    0.0000000000000000     

          --------
          Step   5
          --------

                                 NWChem DFT Module
                                 -----------------


                   BeCl2 | Equilibrium Geometry | B3LYP/6-31G(d)




  The DFT is already converged 

         Total DFT energy =   -935.295550136970



                         DFT ENERGY GRADIENTS

    atom               coordinates                        gradient
                 x          y          z           x          y          z
   1 Be      0.000000   0.000000   0.517146    0.000000   0.000000   0.000009
   2 Cl      3.406633   0.000000   0.516761    0.000028   0.000000  -0.000004
   3 Cl     -3.406633   0.000000   0.516761   -0.000028   0.000000  -0.000004

  no constraints, skipping    0.0000000000000000     

  Step       Energy      Delta E   Gmax     Grms     Xrms     Xmax   Walltime
  ---- ---------------- -------- -------- -------- -------- -------- --------
@    5    -935.29555014 -2.1D-07  0.00003  0.00002  0.00074  0.00156      3.9
                                     ok       ok       ok       ok  


      ----------------------
      Optimization converged
      ----------------------


  Step       Energy      Delta E   Gmax     Grms     Xrms     Xmax   Walltime
  ---- ---------------- -------- -------- -------- -------- -------- --------
@    5    -935.29555014 -2.1D-07  0.00003  0.00002  0.00074  0.00156      3.9
                                     ok       ok       ok       ok  



                         Geometry "geometry" -> "geometry"
                         ---------------------------------

 Output coordinates in angstroms (scale by  1.889725989 to convert to a.u.)

  No.       Tag          Charge          X              Y              Z
 ---- ---------------- ---------- -------------- -------------- --------------
    1 Be                   4.0000     0.00000000     0.00000000     0.27366168
    2 Cl                  17.0000     1.80271245     0.00000000     0.27345809
    3 Cl                  17.0000    -1.80271245     0.00000000     0.27345809

      Atomic Mass 
      ----------- 

      Be                 9.012180
      Cl                34.968850


 Effective nuclear repulsion energy (a.u.)      82.3393756621

            Nuclear Dipole moment (a.u.) 
            ----------------------------
        X                 Y               Z
 ---------------- ---------------- ----------------
     0.0000000000     0.0000000000    19.6384513467

      Symmetry information
      --------------------

 Group name             C2v       
 Group number             16
 Group order               4
 No. of unique centers     2

      Symmetry unique atoms

     1    2


                Final and change from initial internal coordinates
                --------------------------------------------------



                                Z-matrix (autoz)
                                -------- 

 Units are Angstrom for bonds and degrees for angles

      Type          Name      I     J     K     L     M      Value       Change
      ----------- --------  ----- ----- ----- ----- ----- ---------- ----------
    1 Stretch                  1     2                       1.80271   -0.27452
    2 Stretch                  1     3                       1.80271   -0.27452
    3 Bend                     2     1     3               179.98706   70.51705



                                NWChem Input Module
                                -------------------




                                     CITATION
                                     --------
                Please cite the following reference when publishing
                           results obtained with NWChem:

          E. Apra, E. J. Bylaska, W. A. de Jong, N. Govind, K. Kowalski,
       T. P. Straatsma, M. Valiev, H. J. J. van Dam, Y. Alexeev, J. Anchell,
       V. Anisimov, F. W. Aquino, R. Atta-Fynn, J. Autschbach, N. P. Bauman,
     J. C. Becca, D. E. Bernholdt, K. Bhaskaran-Nair, S. Bogatko, P. Borowski,
         J. Boschen, J. Brabec, A. Bruner, E. Cauet, Y. Chen, G. N. Chuev,
      C. J. Cramer, J. Daily, M. J. O. Deegan, T. H. Dunning Jr., M. Dupuis,
   K. G. Dyall, G. I. Fann, S. A. Fischer, A. Fonari, H. Fruchtl, L. Gagliardi,
      J. Garza, N. Gawande, S. Ghosh, K. Glaesemann, A. W. Gotz, J. Hammond,
       V. Helms, E. D. Hermes, K. Hirao, S. Hirata, M. Jacquelin, L. Jensen,
   B. G. Johnson, H. Jonsson, R. A. Kendall, M. Klemm, R. Kobayashi, V. Konkov,
      S. Krishnamoorthy, M. Krishnan, Z. Lin, R. D. Lins, R. J. Littlefield,
      A. J. Logsdail, K. Lopata, W. Ma, A. V. Marenich, J. Martin del Campo,
   D. Mejia-Rodriguez, J. E. Moore, J. M. Mullin, T. Nakajima, D. R. Nascimento,
    J. A. Nichols, P. J. Nichols, J. Nieplocha, A. Otero-de-la-Roza, B. Palmer,
    A. Panyala, T. Pirojsirikul, B. Peng, R. Peverati, J. Pittner, L. Pollack,
   R. M. Richard, P. Sadayappan, G. C. Schatz, W. A. Shelton, D. W. Silverstein,
   D. M. A. Smith, T. A. Soares, D. Song, M. Swart, H. L. Taylor, G. S. Thomas,
            V. Tipparaju, D. G. Truhlar, K. Tsemekhman, T. Van Voorhis,
      A. Vazquez-Mayagoitia, P. Verma, O. Villa, A. Vishnu, K. D. Vogiatzis,
        D. Wang, J. H. Weare, M. J. Williamson, T. L. Windus, K. Wolinski,
        A. T. Wong, Q. Wu, C. Yang, Q. Yu, M. Zacharias, Z. Zhang, Y. Zhao,
                                and R. J. Harrison
                        "NWChem: Past, present, and future
                         J. Chem. Phys. 152, 184102 (2020)
                               doi:10.1063/5.0004997

                                      AUTHORS
                                      -------
  E. Apra, E. J. Bylaska, N. Govind, K. Kowalski, M. Valiev, D. Mejia-Rodriguez,
       A. Kunitsa, N. P. Bauman, A. Panyala, W. A. de Jong, T. P. Straatsma,
   H. J. J. van Dam, D. Wang, T. L. Windus, J. Hammond, J. Autschbach, A. Woods,
    K. Bhaskaran-Nair, J. Brabec, K. Lopata, S. A. Fischer, S. Krishnamoorthy,
     M. Jacquelin, W. Ma, M. Klemm, O. Villa, Y. Chen, V. Anisimov, F. Aquino,
     S. Hirata, M. T. Hackler, E. Hermes, L. Jensen, J. E. Moore, J. C. Becca,
      V. Konjkov, T. Risthaus, M. Malagoli, A. Marenich, A. Otero-de-la-Roza,
        J. Mullin, P. Nichols, R. Peverati, J. Pittner, Y. Zhao, P.-D. Fan,
        A. Fonari, M. J. Williamson, R. J. Harrison, J. R. Rehr, M. Dupuis,
     D. Silverstein, D. M. A. Smith, J. Nieplocha, V. Tipparaju, M. Krishnan,
     B. E. Van Kuiken, A. Vazquez-Mayagoitia, M. Swart, Q. Wu, T. Van Voorhis,
     A. A. Auer, M. Nooijen, L. D. Crosby, E. Brown, G. Cisneros, G. I. Fann,
   H. Fruchtl, J. Garza, K. Hirao, R. A. Kendall, J. A. Nichols, K. Tsemekhman,
    K. Wolinski, J. Anchell, D. E. Bernholdt, P. Borowski, T. Clark, D. Clerc,
   H. Dachsel, M. J. O. Deegan, K. Dyall, D. Elwood, E. Glendening, M. Gutowski,
   A. C. Hess, J. Jaffe, B. G. Johnson, J. Ju, R. Kobayashi, R. Kutteh, Z. Lin,
   R. Littlefield, X. Long, B. Meng, T. Nakajima, S. Niu, L. Pollack, M. Rosing,
   K. Glaesemann, G. Sandrone, M. Stave, H. Taylor, G. Thomas, J. H. van Lenthe,
                               A. T. Wong, Z. Zhang.

 Total times  cpu:        3.8s     wall:        3.9s
