 argument  1 = /home/milias/work/git-projects/Molecular-and-Materials-Modeling-2025/molecular-modeling/themes/HF_molecule_properties/nwchem/ionization_energy/HF+.mp2_daug-cc-pVDZ.nw



============================== echo of input deck ==============================
echo

start molecule

title "HF | Equilibrium Geometry | B3LYP/daug-cc-pVDZ"
charge +1

print low

geometry units angstroms print xyz autosym
F     -7.495632    1.264070   -0.005417
H     -8.290988    1.365470   -0.494508
end

basis
  * library d-aug-cc-pvdz
end

scf
  print low
  DOUBLET
  uhf
end

mp2
  print medium
end

driver
  maxiter 30
end

task mp2 optimize
================================================================================


                                         
                                         


             Northwest Computational Chemistry Package (NWChem) 7.0.2
             --------------------------------------------------------


                    Environmental Molecular Sciences Laboratory
                       Pacific Northwest National Laboratory
                                Richland, WA 99352

                              Copyright (c) 1994-2020
                       Pacific Northwest National Laboratory
                            Battelle Memorial Institute

             NWChem is an open-source computational chemistry package
                        distributed under the terms of the
                      Educational Community License (ECL) 2.0
             A copy of the license is included with this distribution
                              in the LICENSE.TXT file

                                  ACKNOWLEDGMENT
                                  --------------

            This software and its documentation were developed at the
            EMSL at Pacific Northwest National Laboratory, a multiprogram
            national laboratory, operated for the U.S. Department of Energy
            by Battelle under Contract Number DE-AC05-76RL01830. Support
            for this work was provided by the Department of Energy Office
            of Biological and Environmental Research, Office of Basic
            Energy Sciences, and the Office of Advanced Scientific Computing.


           Job information
           ---------------

    hostname        = DESKTOP-7OTLCGO
    program         = /usr/bin/nwchem
    date            = Wed Aug 27 14:36:23 2025

    compiled        = Sat_Apr_09_17:12:10_2022
    source          = /build/nwchem-f1f4gx/nwchem-7.0.2/build-openmpi
    nwchem branch   = 7.0.2
    nwchem revision = N/A
    ga revision     = 5.8.1
    use scalapack   = T
    input           = /home/milias/work/git-projects/Molecular-and-Materials-Modeling-2025/molecular-modeling/themes/HF_molecule_properties/nwchem/ionization_energy/HF+.mp2_daug-cc-pVDZ.nw
    prefix          = molecule.
    data base       = ./molecule.db
    status          = startup
    nproc           =        8
    time left       =     -1s



           Memory information
           ------------------

    heap     =   13107194 doubles =    100.0 Mbytes
    stack    =   13107199 doubles =    100.0 Mbytes
    global   =   26214400 doubles =    200.0 Mbytes (distinct from heap & stack)
    total    =   52428793 doubles =    400.0 Mbytes
    verify   = yes
    hardfail = no 


           Directory information
           ---------------------

  0 permanent = .
  0 scratch   = .




                                NWChem Input Module
                                -------------------


                  HF | Equilibrium Geometry | B3LYP/daug-cc-pVDZ
                  ----------------------------------------------

 Scaling coordinates for geometry "geometry" by  1.889725989
 (inverse scale =  0.529177249)


          ------
          auto-z
          ------
  no constraints, skipping    0.0000000000000000     
  no constraints, skipping    0.0000000000000000     


                             Geometry "geometry" -> ""
                             -------------------------

 Output coordinates in angstroms (scale by  1.889725989 to convert to a.u.)

  No.       Tag          Charge          X              Y              Z
 ---- ---------------- ---------- -------------- -------------- --------------
    1 F                    9.0000     0.00000000     0.00000000     0.09391928
    2 H                    1.0000     0.00000000     0.00000000    -0.84527353

      Atomic Mass 
      ----------- 

      F                 18.998400
      H                  1.007825


 Effective nuclear repulsion energy (a.u.)       5.0709451711

            Nuclear Dipole moment (a.u.) 
            ----------------------------
        X                 Y               Z
 ---------------- ---------------- ----------------
     0.0000000000     0.0000000000     0.0000000000

      Symmetry information
      --------------------

 Group name             C4v       
 Group number             18
 Group order               8
 No. of unique centers     2

      Symmetry unique atoms

     1    2



                                Z-matrix (autoz)
                                -------- 

 Units are Angstrom for bonds and degrees for angles

      Type          Name      I     J     K     L     M      Value
      ----------- --------  ----- ----- ----- ----- ----- ----------
    1 Stretch                  1     2                       0.93919


            XYZ format geometry
            -------------------
     2
 geometry
 F                     0.00000000     0.00000000     0.09391928
 H                     0.00000000     0.00000000    -0.84527353

 ==============================================================================
                                internuclear distances
 ------------------------------------------------------------------------------
       center one      |      center two      | atomic units |  angstroms
 ------------------------------------------------------------------------------
    2 H                |   1 F                |     1.77482  |     0.93919
 ------------------------------------------------------------------------------
                         number of included internuclear distances:          1
 ==============================================================================





 Summary of "ao basis" -> "" (cartesian)
 ------------------------------------------------------------------------------
       Tag                 Description            Shells   Functions and Types
 ---------------- ------------------------------  ------  ---------------------
 *                       d-aug-cc-pvdz                on all atoms 




                           NWChem Geometry Optimization
                           ----------------------------




                  HF | Equilibrium Geometry | B3LYP/daug-cc-pVDZ


  no constraints, skipping    0.0000000000000000     
 maximum gradient threshold         (gmax) =   0.000450
 rms gradient threshold             (grms) =   0.000300
 maximum cartesian step threshold   (xmax) =   0.001800
 rms cartesian step threshold       (xrms) =   0.001200
 fixed trust radius                (trust) =   0.300000
 maximum step size to saddle      (sadstp) =   0.100000
 energy precision                  (eprec) =   1.0D-07
 maximum number of steps          (nptopt) =   30
 initial hessian option           (inhess) =    0
 line search option               (linopt) =    1
 hessian update option            (modupd) =    1
 saddle point option              (modsad) =    0
 initial eigen-mode to follow     (moddir) =    0
 initial variable to follow       (vardir) =    0
 follow first negative mode     (firstneg) =    T
 apply conjugacy                    (opcg) =    F
 source of zmatrix                         =   autoz   


          -------------------
          Energy Minimization
          -------------------


 Names of Z-matrix variables 
    1         

 Variables with the same non-blank name are constrained to be equal


 Using diagonal initial Hessian 
 Scaling for Hessian diagonals: bonds = 1.00  angles = 0.25  torsions = 0.10

          --------
          Step   0
          --------
                      Basis "ao basis" -> "ao basis" (cartesian)
                      -----
  F (Fluorine)
  ------------
            Exponent  Coefficients 
       -------------- ---------------------------------------------------------
  1 S  1.47100000E+04  0.000721
  1 S  2.20700000E+03  0.005553
  1 S  5.02800000E+02  0.028267
  1 S  1.42600000E+02  0.106444
  1 S  4.64700000E+01  0.286814
  1 S  1.67000000E+01  0.448641
  1 S  6.35600000E+00  0.264761
  1 S  1.31600000E+00  0.015333

  2 S  1.47100000E+04 -0.000165
  2 S  2.20700000E+03 -0.001308
  2 S  5.02800000E+02 -0.006495
  2 S  1.42600000E+02 -0.026691
  2 S  4.64700000E+01 -0.073690
  2 S  1.67000000E+01 -0.170776
  2 S  6.35600000E+00 -0.112327
  2 S  1.31600000E+00  0.562814

  3 S  3.89700000E-01  1.000000

  4 S  9.86300000E-02  1.000000

  5 S  2.50000000E-02  1.000000

  6 P  2.26700000E+01  0.044878
  6 P  4.97700000E+00  0.235718
  6 P  1.34700000E+00  0.508521

  7 P  3.47100000E-01  1.000000

  8 P  8.50200000E-02  1.000000

  9 P  2.08000000E-02  1.000000

 10 D  1.64000000E+00  1.000000

 11 D  4.64000000E-01  1.000000

 12 D  1.31000000E-01  1.000000

  H (Hydrogen)
  ------------
            Exponent  Coefficients 
       -------------- ---------------------------------------------------------
  1 S  1.30100000E+01  0.019685
  1 S  1.96200000E+00  0.137977
  1 S  4.44600000E-01  0.478148

  2 S  1.22000000E-01  1.000000

  3 S  2.97400000E-02  1.000000

  4 S  7.25000000E-03  1.000000

  5 P  7.27000000E-01  1.000000

  6 P  1.41000000E-01  1.000000

  7 P  2.73000000E-02  1.000000



 Summary of "ao basis" -> "ao basis" (cartesian)
 ------------------------------------------------------------------------------
       Tag                 Description            Shells   Functions and Types
 ---------------- ------------------------------  ------  ---------------------
 F                       d-aug-cc-pvdz              12       35   5s4p3d
 H                       d-aug-cc-pvdz               7       13   4s3p


                                 NWChem SCF Module
                                 -----------------


                  HF | Equilibrium Geometry | B3LYP/daug-cc-pVDZ



  ao basis        = "ao basis"
  functions       =    48
  atoms           =     2
  alpha electrons =     5
  beta  electrons =     4
  charge          =   1.00
  wavefunction    = UHF 
  input vectors   = atomic
  output vectors  = ./molecule.movecs
  use symmetry    = T
  symmetry adapt  = T


 Forming initial guess at       0.0s


 !! scf_movecs_sym_adapt:    6 vectors were symmetry contaminated

  Symmetry fudging

 !! scf_movecs_sym_adapt:    6 vectors were symmetry contaminated


 !! scf_movecs_sym_adapt:    6 vectors were symmetry contaminated

  Symmetry fudging

 !! scf_movecs_sym_adapt:    6 vectors were symmetry contaminated


 Starting SCF solution at       0.1s

 Warning: spatial symmetry breaking in UHF:  7.60D-15 2.49D-01
 Warning: spatial symmetry breaking in UHF:  5.33D-15 1.87D-01
 Warning: spatial symmetry breaking in UHF:  5.05D-15 1.78D-01
 Warning: spatial symmetry breaking in UHF:  5.07D-15 1.75D-01
 Warning: spatial symmetry breaking in UHF:  5.10D-15 1.69D-01
 Warning: spatial symmetry breaking in UHF:  5.42D-15 1.70D-01
 Warning: spatial symmetry breaking in UHF:  5.52D-15 1.70D-01
 Warning: spatial symmetry breaking in UHF:  5.58D-15 1.70D-01
 Warning: spatial symmetry breaking in UHF:  5.63D-15 1.69D-01
 Warning: spatial symmetry breaking in UHF:  5.77D-15 1.69D-01
 Warning: spatial symmetry breaking in UHF:  5.77D-15 1.69D-01


       Final UHF  results 
       ------------------ 

         Total SCF energy =    -99.312591889706
      One electron energy =   -144.169142229241
      Two electron energy =     39.785605168425
 Nuclear repulsion energy =      5.070945171111

                       Sz =      0.5000
                 Sz(Sz+1) =      0.7500
                      S^2 =      0.7731

        Time for solution =      0.3s


                   NWChem MP2 Semi-direct Energy/Gradient Module
                   ---------------------------------------------


                  HF | Equilibrium Geometry | B3LYP/daug-cc-pVDZ


  Basis functions       =     48
  Molecular orbitals    =     48
  Frozen core           =      0
  Frozen virtuals       =      0
  Active alpha occupied =      5
  Active beta occupied  =      4
  Active alpha virtual  =     43
  Active beta virtual   =     44
  Use MO symmetry       = F
  Use skeleton AO sym   = T

  AO/Fock/Back tols     =   1.0D-09  1.0D-09  1.0D-09

 GA uses MA = F    GA memory limited = T

 Available: 
  local mem=  2.62D+07
 global mem=  2.62D+07
 local disk=  1.44D+10
  mp2_memr nvloc                     6
  nvloc new                     6
   1 passes of   5:        3084306                       9657                    149087.

 Semi-direct pass number   1 of   1  for UHF alpha       at        0.5s
  vrange nnbf                  1176
Node 0 wrote      0.3 Mb in      0.0 s     Agg I/O rate:  3486.5 Mb/s
 Done moints_semi at        0.5s
  mp2_eaf for ta                     -1
  mp2_eaf for tb                     -1
 Done maket at        0.5s
 Done pijab at        0.5s
 Done wijab at        0.5s
 Done lai at        0.5s
 Done nonsep at        0.6s
 Done multipass loop at        0.6s

 GA uses MA = F    GA memory limited = T

 Available: 
  local mem=  2.62D+07
 global mem=  2.62D+07
 local disk=  1.44D+10
  mp2_memr nvloc                     6
  nvloc new                     6
   1 passes of   4:        3082495                       8730                    120649.

 Semi-direct pass number   1 of   1  for UHF beta        at        0.6s
  vrange nnbf                  1176
Node 0 wrote      0.2 Mb in      0.0 s     Agg I/O rate:  2227.1 Mb/s
 Done moints_semi at        0.6s
  mp2_eaf for ta                     -1
  mp2_eaf for tb                     -1
 Done maket at        0.6s
 Done pijab at        0.6s
 Done wijab at        0.6s
 Done lai at        0.6s
 Done nonsep at        0.7s
 Done multipass loop at        0.7s


          -------------------------------------------
          SCF energy                 -99.312591889706
          Correlation energy          -0.171739893663
          Singlet pairs                0.000000000000
          Triplet pairs                0.000000000000
          Total MP2 energy           -99.484331783369
          -------------------------------------------



          ---------------------------------------------------
                    Spin Component Scaled (SCS) MP2
          Same spin pairs                     -0.041092200790
          Same spin scaling factor             0.333333333333
          Opposite spin pairs                 -0.130647692873
          Opposite spin scaling fact.          1.200000000000
          SCS-MP2 correlation energy          -0.170474631711
          Total SCS-MP2 energy               -99.483066521416
          ---------------------------------------------------

                                NWChem CPHF Module
                                ------------------


    scftype = UHF 
     nalpha =    5
      nbeta =    4
  variables =      391
  tolerance =   1.0D-04
  max. iter =  100

 Warning: spatial symmetry breaking in UHF:  5.77D-15 1.69D-01

 #quartets = 1.814D+04 #integrals = 1.821D+05 #direct =  0.0% #cached =100.0%


 Integral file          = ./molecule.aoints.0
 Record size in doubles =  65536        No. of integs per rec  =  43688
 Max. records in memory =      2        Max. records in file   = 208475
 No. of bits per label  =      8        No. of bits per value  =     64


File balance: exchanges=     0  moved=     0  time=   0.0

 SCF residual:    1.8692075076224270E-008

            ----- linear solve (tol: 1.0E-04 prod-acc: 2.6E-12) -----

               iter nbas    rnorm     rnorm-scal   ratio     time
               ---- ---- ----------- ----------- --------- -------
                  1    1  1.6455E-02  3.2056E-01    0.0000     0.6
                  2    2  3.9560E-03  7.7066E-02    0.2404     0.6
                  3    3  1.0763E-03  2.0967E-02    0.2721     0.6
                  4    4  3.1564E-04  6.1489E-03    0.2933     0.6
                  5    5  7.6499E-05  1.4903E-03    0.2424     0.6
                  6    6  1.3124E-05  2.5566E-04    0.1716     0.7
                  7    7  2.4756E-06  4.8227E-05    0.1886     0.7

 CPHF converged to   4.8D-05 in    7 iters


 Parallel integral file used       8 records with       0 large values

                Dipole Moments (a.u.)
                --------------
         Nuclear       SCF       SCF+MP2
       ----------- ----------- -----------
 X       0.000000   -0.000000   -0.000000
 Y       0.000000   -0.000000   -0.000000
 Z       0.000000   -0.876987   -0.838497


 MP2 alpha    natural orbital occupation numbers


              1      
    1    0.9999
    2    0.9961
    3    0.9918
    4    0.9906
    5    0.9884
    6    0.0082
    7    0.0054
    8    0.0048
    9    0.0031
   10    0.0024
   11    0.0023
   12    0.0022
   13    0.0018
   14    0.0018
   15    0.0003
   16    0.0002
   17    0.0002
   18    0.0001
   19    0.0001
   20    0.0001
   21    0.0001
   22    0.0001
   23    0.0001
   24    0.0001
   25    0.0000
   26    0.0000
   27    0.0000
   28    0.0000
   29    0.0000
   30    0.0000
   31    0.0000
   32    0.0000
   33    0.0000
   34    0.0000
   35    0.0000
   36    0.0000
   37    0.0000
   38    0.0000
   39    0.0000
   40    0.0000
   41    0.0000
   42    0.0000
   43    0.0000
   44    0.0000
   45   -0.0000
   46   -0.0000
   47   -0.0000
   48   -0.0000

 MP2 beta     natural orbital occupation numbers


              1      
    1    0.9999
    2    0.9927
    3    0.9884
    4    0.9882
    5    0.0083
    6    0.0076
    7    0.0036
    8    0.0032
    9    0.0020
   10    0.0020
   11    0.0012
   12    0.0010
   13    0.0005
   14    0.0003
   15    0.0002
   16    0.0002
   17    0.0001
   18    0.0001
   19    0.0001
   20    0.0001
   21    0.0001
   22    0.0001
   23    0.0000
   24    0.0000
   25    0.0000
   26    0.0000
   27    0.0000
   28    0.0000
   29    0.0000
   30    0.0000
   31    0.0000
   32    0.0000
   33    0.0000
   34    0.0000
   35    0.0000
   36    0.0000
   37    0.0000
   38    0.0000
   39    0.0000
   40    0.0000
   41    0.0000
   42    0.0000
   43    0.0000
   44    0.0000
   45    0.0000
   46   -0.0000
   47   -0.0000
   48   -0.0000

  MP2 natural orbitals output to ./molecule.mp2nos

  Using symmetry


                         mp2 ENERGY GRADIENTS

    atom               coordinates                        gradient
                 x          y          z           x          y          z
   1 F       0.000000   0.000000   0.177482    0.000000   0.000000  -0.051893
   2 H       0.000000   0.000000  -1.597335    0.000000   0.000000   0.051893

                 ----------------------------------------
                 |  Time  |  1-e(secs)   |  2-e(secs)   |
                 ----------------------------------------
                 |  CPU   |       0.00   |       0.05   |
                 ----------------------------------------
                 |  WALL  |       0.00   |       0.05   |
                 ----------------------------------------
 -----------------------
 Performance information
 -----------------------

 Timer overhead =  9.09D-08 seconds/call

               Nr. of calls         CPU time (s)                 Wall time (s)                GFlops
             ---------------    -------------------     ------------------------------   -------------------
Name         Min   Avg   Max    Min     Avg     Max     Min     Avg     Max   Mx/calls   Min     Max     Sum
mp2: moin     2     2     2   3.46E-2 3.78E-2 3.89E-2  3.92E-2 3.92E-2 3.92E-2 1.96E-2   0.0     0.0     0.0   
mp2: make     2     2     2   7.48E-3 1.02E-2 1.11E-2  1.10E-2 1.11E-2 1.11E-2 5.55E-3   0.0     0.0     0.0   
mp2: pija     2     2     2   6.88E-4 8.01E-4 8.34E-4  8.33E-4 8.35E-4 8.41E-4 4.20E-4   0.0     0.0     0.0   
mp2: wija     2     2     2   6.54E-4 7.95E-4 8.33E-4  7.96E-4 8.28E-4 8.35E-4 4.18E-4   0.0     0.0     0.0   
mp2: lai      2     2     2   8.17E-3 1.12E-2 1.17E-2  1.17E-2 1.17E-2 1.17E-2 5.86E-3   0.0     0.0     0.0   
mp2: back     2     2     2   1.06E-2 1.28E-2 1.47E-2  1.47E-2 1.47E-2 1.47E-2 7.35E-3   0.0     0.0     0.0   
mp2: nons     2     2     2   5.75E-2 7.01E-2 9.57E-2  5.75E-2 7.10E-2 9.57E-2 4.78E-2   0.0     0.0     0.0   
mp2: laif     1     1     1   1.05E-2 1.32E-2 1.36E-2  1.36E-2 1.36E-2 1.36E-2 1.36E-2   0.0     0.0     0.0   
mp2: cphf     1     1     1   7.80E-2 8.61E-2 9.37E-2  0.11    0.11    0.11    0.11      0.0     0.0     0.0   
mp2: wijf     1     1     1   1.47E-2 1.47E-2 1.47E-2  1.48E-2 1.48E-2 1.48E-2 1.48E-2   0.0     0.0     0.0   
mp2: sep      1     1     1   6.49E-2 6.49E-2 6.50E-2  6.50E-2 6.50E-2 6.50E-2 6.50E-2   0.0     0.0     0.0   
mp2: tota     1     1     1   0.40    0.41    0.42     0.47    0.47    0.47    0.47      0.0     0.0     0.0   

 The average no. of pstat calls per process was 1.90D+01
 with a timing overhead of 1.73D-06s

  no constraints, skipping    0.0000000000000000     

@ Step       Energy      Delta E   Gmax     Grms     Xrms     Xmax   Walltime
@ ---- ---------------- -------- -------- -------- -------- -------- --------
@    0     -99.48433178  0.0D+00  0.05189  0.05189  0.00000  0.00000      0.9
                                                                    

  no constraints, skipping    0.0000000000000000     
  no constraints, skipping    0.0000000000000000     
  no constraints, skipping    0.0000000000000000     
                                 NWChem SCF Module
                                 -----------------


                  HF | Equilibrium Geometry | B3LYP/daug-cc-pVDZ



  ao basis        = "ao basis"
  functions       =    48
  atoms           =     2
  alpha electrons =     5
  beta  electrons =     4
  charge          =   1.00
  wavefunction    = UHF 
  input vectors   = ./molecule.movecs
  output vectors  = ./molecule.movecs
  use symmetry    = T
  symmetry adapt  = T


 Forming initial guess at       0.9s


 Starting SCF solution at       0.9s

 Warning: spatial symmetry breaking in UHF:  5.80D-15 1.70D-01
 Warning: spatial symmetry breaking in UHF:  5.15D-15 1.68D-01
 Warning: spatial symmetry breaking in UHF:  5.02D-15 1.68D-01
 Warning: spatial symmetry breaking in UHF:  4.92D-15 1.68D-01
 Warning: spatial symmetry breaking in UHF:  4.92D-15 1.68D-01
 Warning: spatial symmetry breaking in UHF:  4.92D-15 1.68D-01
 Warning: spatial symmetry breaking in UHF:  4.95D-15 1.68D-01
 Warning: spatial symmetry breaking in UHF:  4.95D-15 1.68D-01


       Final UHF  results 
       ------------------ 

         Total SCF energy =    -99.313665949877
      One electron energy =   -143.578019347244
      Two electron energy =     39.616787987696
 Nuclear repulsion energy =      4.647565409671

                       Sz =      0.5000
                 Sz(Sz+1) =      0.7500
                      S^2 =      0.7750

        Time for solution =      0.2s


                   NWChem MP2 Semi-direct Energy/Gradient Module
                   ---------------------------------------------


                  HF | Equilibrium Geometry | B3LYP/daug-cc-pVDZ


  Basis functions       =     48
  Molecular orbitals    =     48
  Frozen core           =      0
  Frozen virtuals       =      0
  Active alpha occupied =      5
  Active beta occupied  =      4
  Active alpha virtual  =     43
  Active beta virtual   =     44
  Use MO symmetry       = F
  Use skeleton AO sym   = T

  AO/Fock/Back tols     =   1.0D-09  1.0D-09  1.0D-09

 GA uses MA = F    GA memory limited = T

 Available: 
  local mem=  2.62D+07
 global mem=  2.62D+07
 local disk=  1.44D+10
  mp2_memr nvloc                     6
  nvloc new                     6
   1 passes of   5:         757562                       8482                    123957.

 Semi-direct pass number   1 of   1  for UHF alpha       at        1.2s
  vrange nnbf                  1176
Node 0 wrote      0.3 Mb in      0.0 s     Agg I/O rate:  3311.3 Mb/s
 Done moints_semi at        1.2s
 Done maket at        1.2s
 Done multipass loop at        1.2s

 GA uses MA = F    GA memory limited = T

 Available: 
  local mem=  2.62D+07
 global mem=  2.62D+07
 local disk=  1.44D+10
  mp2_memr nvloc                     6
  nvloc new                     6
   1 passes of   4:         755799                       7050                     99967.

 Semi-direct pass number   1 of   1  for UHF beta        at        1.2s
  vrange nnbf                  1176
Node 0 wrote      0.2 Mb in      0.0 s     Agg I/O rate:  3442.5 Mb/s
 Done moints_semi at        1.3s
 Done maket at        1.3s
 Done multipass loop at        1.3s


          -------------------------------------------
          SCF energy                 -99.313665949877
          Correlation energy          -0.174392634543
          Singlet pairs                0.000000000000
          Triplet pairs                0.000000000000
          Total MP2 energy           -99.488058584420
          -------------------------------------------



          ---------------------------------------------------
                    Spin Component Scaled (SCS) MP2
          Same spin pairs                     -0.041805315919
          Same spin scaling factor             0.333333333333
          Opposite spin pairs                 -0.132587318624
          Opposite spin scaling fact.          1.200000000000
          SCS-MP2 correlation energy          -0.173039887655
          Total SCS-MP2 energy               -99.486705837532
          ---------------------------------------------------

 -----------------------
 Performance information
 -----------------------

 Timer overhead =  1.02D-07 seconds/call

               Nr. of calls         CPU time (s)                 Wall time (s)                GFlops
             ---------------    -------------------     ------------------------------   -------------------
Name         Min   Avg   Max    Min     Avg     Max     Min     Avg     Max   Mx/calls   Min     Max     Sum
mp2: moin     2     2     2   3.02E-2 3.38E-2 3.83E-2  3.92E-2 3.93E-2 3.93E-2 1.97E-2   0.0     0.0     0.0   
mp2: make     2     2     2   8.23E-3 8.24E-3 8.24E-3  8.23E-3 8.24E-3 8.24E-3 4.12E-3   0.0     0.0     0.0   
mp2: tota     1     1     1   6.86E-2 7.12E-2 7.67E-2  9.71E-2 9.71E-2 9.71E-2 9.71E-2   0.0     0.0     0.0   

 The average no. of pstat calls per process was 5.00D+00
 with a timing overhead of 5.10D-07s

 Line search: 
     step= 1.00 grad=-8.4D-03 hess= 4.7D-03 energy=    -99.488059 mode=downhill
 new step= 0.90                   predicted energy=    -99.488106
  no constraints, skipping    0.0000000000000000     
  no constraints, skipping    0.0000000000000000     
  no constraints, skipping    0.0000000000000000     

          --------
          Step   1
          --------
                                 NWChem SCF Module
                                 -----------------


                  HF | Equilibrium Geometry | B3LYP/daug-cc-pVDZ



  ao basis        = "ao basis"
  functions       =    48
  atoms           =     2
  alpha electrons =     5
  beta  electrons =     4
  charge          =   1.00
  wavefunction    = UHF 
  input vectors   = ./molecule.movecs
  output vectors  = ./molecule.movecs
  use symmetry    = T
  symmetry adapt  = T


 Forming initial guess at       1.3s


 Starting SCF solution at       1.3s

 Warning: spatial symmetry breaking in UHF:  4.95D-15 1.68D-01
 Warning: spatial symmetry breaking in UHF:  5.02D-15 1.68D-01
 Warning: spatial symmetry breaking in UHF:  5.04D-15 1.68D-01
 Warning: spatial symmetry breaking in UHF:  5.06D-15 1.68D-01
 Warning: spatial symmetry breaking in UHF:  5.05D-15 1.68D-01
 Warning: spatial symmetry breaking in UHF:  5.05D-15 1.68D-01


       Final UHF  results 
       ------------------ 

         Total SCF energy =    -99.313977517882
      One electron energy =   -143.632364723799
      Two electron energy =     39.631531073777
 Nuclear repulsion energy =      4.686856132141

                       Sz =      0.5000
                 Sz(Sz+1) =      0.7500
                      S^2 =      0.7748

        Time for solution =      0.2s


                   NWChem MP2 Semi-direct Energy/Gradient Module
                   ---------------------------------------------


                  HF | Equilibrium Geometry | B3LYP/daug-cc-pVDZ


  Basis functions       =     48
  Molecular orbitals    =     48
  Frozen core           =      0
  Frozen virtuals       =      0
  Active alpha occupied =      5
  Active beta occupied  =      4
  Active alpha virtual  =     43
  Active beta virtual   =     44
  Use MO symmetry       = F
  Use skeleton AO sym   = T

  AO/Fock/Back tols     =   1.0D-09  1.0D-09  1.0D-09

 GA uses MA = F    GA memory limited = T

 Available: 
  local mem=  2.62D+07
 global mem=  2.62D+07
 local disk=  1.44D+10
  mp2_memr nvloc                     6
  nvloc new                     6
   1 passes of   5:        3084306                       9657                    149087.

 Semi-direct pass number   1 of   1  for UHF alpha       at        1.5s
  vrange nnbf                  1176
Node 0 wrote      0.3 Mb in      0.0 s     Agg I/O rate:  4014.7 Mb/s
 Done moints_semi at        1.5s
  mp2_eaf for ta                     -1
  mp2_eaf for tb                     -1
 Done maket at        1.6s
 Done pijab at        1.6s
 Done wijab at        1.6s
 Done lai at        1.6s
 Done nonsep at        1.6s
 Done multipass loop at        1.6s

 GA uses MA = F    GA memory limited = T

 Available: 
  local mem=  2.62D+07
 global mem=  2.62D+07
 local disk=  1.44D+10
  mp2_memr nvloc                     6
  nvloc new                     6
   1 passes of   4:        3082495                       8730                    120649.

 Semi-direct pass number   1 of   1  for UHF beta        at        1.6s
  vrange nnbf                  1176
Node 0 wrote      0.2 Mb in      0.0 s     Agg I/O rate:  3874.2 Mb/s
 Done moints_semi at        1.7s
  mp2_eaf for ta                     -1
  mp2_eaf for tb                     -1
 Done maket at        1.7s
 Done pijab at        1.7s
 Done wijab at        1.7s
 Done lai at        1.7s
 Done nonsep at        1.7s
 Done multipass loop at        1.7s


          -------------------------------------------
          SCF energy                 -99.313977517882
          Correlation energy          -0.174143122109
          Singlet pairs                0.000000000000
          Triplet pairs                0.000000000000
          Total MP2 energy           -99.488120639991
          -------------------------------------------



          ---------------------------------------------------
                    Spin Component Scaled (SCS) MP2
          Same spin pairs                     -0.041737184596
          Same spin scaling factor             0.333333333333
          Opposite spin pairs                 -0.132405937512
          Opposite spin scaling fact.          1.200000000000
          SCS-MP2 correlation energy          -0.172799519880
          Total SCS-MP2 energy               -99.486777037762
          ---------------------------------------------------

                                NWChem CPHF Module
                                ------------------


    scftype = UHF 
     nalpha =    5
      nbeta =    4
  variables =      391
  tolerance =   1.0D-04
  max. iter =  100

 Warning: spatial symmetry breaking in UHF:  5.05D-15 1.68D-01

 #quartets = 1.814D+04 #integrals = 1.821D+05 #direct =  0.0% #cached =100.0%


 Integral file          = ./molecule.aoints.0
 Record size in doubles =  65536        No. of integs per rec  =  43688
 Max. records in memory =      2        Max. records in file   = 208475
 No. of bits per label  =      8        No. of bits per value  =     64


File balance: exchanges=     0  moved=     0  time=   0.0

 SCF residual:    8.2377145796087033E-008

            ----- linear solve (tol: 1.0E-04 prod-acc: 2.7E-12) -----

               iter nbas    rnorm     rnorm-scal   ratio     time
               ---- ---- ----------- ----------- --------- -------
                  1    1  1.7873E-02  3.3651E-01    0.0000     1.5
                  2    2  4.4202E-03  8.3224E-02    0.2473     1.5
                  3    3  1.3973E-03  2.6309E-02    0.3161     1.5
                  4    4  4.4846E-04  8.4436E-03    0.3209     1.6
                  5    5  1.0793E-04  2.0322E-03    0.2407     1.6
                  6    6  1.8331E-05  3.4514E-04    0.1698     1.6
                  7    7  3.4588E-06  6.5122E-05    0.1887     1.6

 CPHF converged to   6.5D-05 in    7 iters


 Parallel integral file used       8 records with       0 large values

                Dipole Moments (a.u.)
                --------------
         Nuclear       SCF       SCF+MP2
       ----------- ----------- -----------
 X       0.000000   -0.000000   -0.000000
 Y       0.000000    0.000000   -0.000000
 Z       0.581787   -0.929257   -0.880447


 MP2 alpha    natural orbital occupation numbers


              1      
    1    0.9999
    2    0.9960
    3    0.9916
    4    0.9904
    5    0.9876
    6    0.0091
    7    0.0056
    8    0.0050
    9    0.0031
   10    0.0024
   11    0.0023
   12    0.0023
   13    0.0018
   14    0.0018
   15    0.0003
   16    0.0002
   17    0.0002
   18    0.0001
   19    0.0001
   20    0.0001
   21    0.0001
   22    0.0001
   23    0.0000
   24    0.0000
   25    0.0000
   26    0.0000
   27    0.0000
   28    0.0000
   29    0.0000
   30    0.0000
   31    0.0000
   32    0.0000
   33    0.0000
   34    0.0000
   35    0.0000
   36    0.0000
   37    0.0000
   38    0.0000
   39    0.0000
   40    0.0000
   41    0.0000
   42    0.0000
   43    0.0000
   44    0.0000
   45   -0.0000
   46   -0.0000
   47   -0.0000
   48   -0.0000

 MP2 beta     natural orbital occupation numbers


              1      
    1    0.9999
    2    0.9925
    3    0.9878
    4    0.9874
    5    0.0093
    6    0.0080
    7    0.0037
    8    0.0033
    9    0.0020
   10    0.0020
   11    0.0012
   12    0.0010
   13    0.0005
   14    0.0003
   15    0.0002
   16    0.0002
   17    0.0001
   18    0.0001
   19    0.0001
   20    0.0001
   21    0.0001
   22    0.0001
   23    0.0000
   24    0.0000
   25    0.0000
   26    0.0000
   27    0.0000
   28    0.0000
   29    0.0000
   30    0.0000
   31    0.0000
   32    0.0000
   33    0.0000
   34    0.0000
   35    0.0000
   36    0.0000
   37    0.0000
   38    0.0000
   39    0.0000
   40    0.0000
   41    0.0000
   42    0.0000
   43    0.0000
   44    0.0000
   45    0.0000
   46   -0.0000
   47   -0.0000
   48   -0.0000

  MP2 natural orbitals output to ./molecule.mp2nos

  Using symmetry


                         mp2 ENERGY GRADIENTS

    atom               coordinates                        gradient
                 x          y          z           x          y          z
   1 F       0.000000   0.000000   0.250205    0.000000   0.000000   0.007824
   2 H       0.000000   0.000000  -1.670059    0.000000   0.000000  -0.007824

                 ----------------------------------------
                 |  Time  |  1-e(secs)   |  2-e(secs)   |
                 ----------------------------------------
                 |  CPU   |       0.00   |       0.05   |
                 ----------------------------------------
                 |  WALL  |       0.00   |       0.05   |
                 ----------------------------------------
 -----------------------
 Performance information
 -----------------------

 Timer overhead =  4.47D-08 seconds/call

               Nr. of calls         CPU time (s)                 Wall time (s)                GFlops
             ---------------    -------------------     ------------------------------   -------------------
Name         Min   Avg   Max    Min     Avg     Max     Min     Avg     Max   Mx/calls   Min     Max     Sum
mp2: moin     2     2     2   2.89E-2 3.29E-2 3.70E-2  3.74E-2 3.75E-2 3.75E-2 1.87E-2   0.0     0.0     0.0   
mp2: make     2     2     2   7.13E-3 9.34E-3 1.07E-2  1.05E-2 1.06E-2 1.07E-2 5.34E-3   0.0     0.0     0.0   
mp2: pija     2     2     2   9.91E-4 1.06E-3 1.10E-3  1.09E-3 1.09E-3 1.10E-3 5.48E-4   0.0     0.0     0.0   
mp2: wija     2     2     2   9.29E-4 1.00E-3 1.04E-3  1.00E-3 1.03E-3 1.04E-3 5.19E-4   0.0     0.0     0.0   
mp2: lai      2     2     2   9.80E-3 9.93E-3 1.00E-2  1.00E-2 1.00E-2 1.00E-2 5.01E-3   0.0     0.0     0.0   
mp2: back     2     2     2   1.35E-2 1.35E-2 1.35E-2  1.35E-2 1.35E-2 1.35E-2 6.73E-3   0.0     0.0     0.0   
mp2: nons     2     2     2   5.57E-2 7.24E-2 0.10     5.57E-2 7.24E-2 0.10    5.00E-2   0.0     0.0     0.0   
mp2: laif     1     1     1   1.15E-2 1.15E-2 1.15E-2  1.15E-2 1.15E-2 1.15E-2 1.15E-2   0.0     0.0     0.0   
mp2: cphf     1     1     1   9.24E-2 0.11    0.11     0.12    0.12    0.12    0.12      0.0     0.0     0.0   
mp2: wijf     1     1     1   1.34E-2 1.35E-2 1.36E-2  1.36E-2 1.36E-2 1.36E-2 1.36E-2   0.0     0.0     0.0   
mp2: sep      1     1     1   6.14E-2 6.16E-2 6.17E-2  6.18E-2 6.18E-2 6.18E-2 6.18E-2   0.0     0.0     0.0   
mp2: tota     1     1     1   0.41    0.43    0.44     0.46    0.46    0.46    0.46      0.0     0.0     0.0   

 The average no. of pstat calls per process was 1.90D+01
 with a timing overhead of 8.49D-07s

  no constraints, skipping    0.0000000000000000     

  Step       Energy      Delta E   Gmax     Grms     Xrms     Xmax   Walltime
  ---- ---------------- -------- -------- -------- -------- -------- --------
@    1     -99.48812064 -3.8D-03  0.00782  0.00782  0.04199  0.07272      2.0
                                                                    

  no constraints, skipping    0.0000000000000000     
  no constraints, skipping    0.0000000000000000     
  no constraints, skipping    0.0000000000000000     
                                 NWChem SCF Module
                                 -----------------


                  HF | Equilibrium Geometry | B3LYP/daug-cc-pVDZ



  ao basis        = "ao basis"
  functions       =    48
  atoms           =     2
  alpha electrons =     5
  beta  electrons =     4
  charge          =   1.00
  wavefunction    = UHF 
  input vectors   = ./molecule.movecs
  output vectors  = ./molecule.movecs
  use symmetry    = T
  symmetry adapt  = T


 Forming initial guess at       2.0s


 Starting SCF solution at       2.0s

 Warning: spatial symmetry breaking in UHF:  5.05D-15 1.68D-01
 Warning: spatial symmetry breaking in UHF:  5.13D-15 1.68D-01
 Warning: spatial symmetry breaking in UHF:  5.16D-15 1.68D-01
 Warning: spatial symmetry breaking in UHF:  5.18D-15 1.68D-01
 Warning: spatial symmetry breaking in UHF:  5.17D-15 1.68D-01
 Warning: spatial symmetry breaking in UHF:  5.17D-15 1.68D-01


       Final UHF  results 
       ------------------ 

         Total SCF energy =    -99.314245297261
      One electron energy =   -143.697507883229
      Two electron energy =     39.649431086670
 Nuclear repulsion energy =      4.733831499298

                       Sz =      0.5000
                 Sz(Sz+1) =      0.7500
                      S^2 =      0.7746

        Time for solution =      0.2s


                   NWChem MP2 Semi-direct Energy/Gradient Module
                   ---------------------------------------------


                  HF | Equilibrium Geometry | B3LYP/daug-cc-pVDZ


  Basis functions       =     48
  Molecular orbitals    =     48
  Frozen core           =      0
  Frozen virtuals       =      0
  Active alpha occupied =      5
  Active beta occupied  =      4
  Active alpha virtual  =     43
  Active beta virtual   =     44
  Use MO symmetry       = F
  Use skeleton AO sym   = T

  AO/Fock/Back tols     =   1.0D-09  1.0D-09  1.0D-09

 GA uses MA = F    GA memory limited = T

 Available: 
  local mem=  2.62D+07
 global mem=  2.62D+07
 local disk=  1.44D+10
  mp2_memr nvloc                     6
  nvloc new                     6
   1 passes of   5:         757562                       8482                    123957.

 Semi-direct pass number   1 of   1  for UHF alpha       at        2.2s
  vrange nnbf                  1176
Node 0 wrote      0.3 Mb in      0.0 s     Agg I/O rate:  3288.9 Mb/s
 Done moints_semi at        2.2s
 Done maket at        2.2s
 Done multipass loop at        2.2s

 GA uses MA = F    GA memory limited = T

 Available: 
  local mem=  2.62D+07
 global mem=  2.62D+07
 local disk=  1.44D+10
  mp2_memr nvloc                     6
  nvloc new                     6
   1 passes of   4:         755799                       7050                     99967.

 Semi-direct pass number   1 of   1  for UHF beta        at        2.2s
  vrange nnbf                  1176
Node 0 wrote      0.2 Mb in      0.0 s     Agg I/O rate:  3800.1 Mb/s
 Done moints_semi at        2.3s
 Done maket at        2.3s
 Done multipass loop at        2.3s


          -------------------------------------------
          SCF energy                 -99.314245297261
          Correlation energy          -0.173844860856
          Singlet pairs                0.000000000000
          Triplet pairs                0.000000000000
          Total MP2 energy           -99.488090158117
          -------------------------------------------



          ---------------------------------------------------
                    Spin Component Scaled (SCS) MP2
          Same spin pairs                     -0.041656094314
          Same spin scaling factor             0.333333333333
          Opposite spin pairs                 -0.132188766542
          Opposite spin scaling fact.          1.200000000000
          SCS-MP2 correlation energy          -0.172511884622
          Total SCS-MP2 energy               -99.486757181883
          ---------------------------------------------------

 -----------------------
 Performance information
 -----------------------

 Timer overhead =  1.90D-07 seconds/call

               Nr. of calls         CPU time (s)                 Wall time (s)                GFlops
             ---------------    -------------------     ------------------------------   -------------------
Name         Min   Avg   Max    Min     Avg     Max     Min     Avg     Max   Mx/calls   Min     Max     Sum
mp2: moin     2     2     2   3.19E-2 3.43E-2 4.00E-2  4.14E-2 4.15E-2 4.15E-2 2.07E-2   0.0     0.0     0.0   
mp2: make     2     2     2   4.11E-3 5.98E-3 6.29E-3  8.69E-3 8.70E-3 8.71E-3 4.35E-3   0.0     0.0     0.0   
mp2: tota     1     1     1   5.87E-2 6.23E-2 6.68E-2  9.47E-2 9.47E-2 9.47E-2 9.47E-2   0.0     0.0     0.0   

 The average no. of pstat calls per process was 5.00D+00
 with a timing overhead of 9.50D-07s

 Line search: 
     step= 1.00 grad=-1.5D-04 hess= 1.8D-04 energy=    -99.488090 mode=bracket 
 new step= 0.42                   predicted energy=    -99.488152
  no constraints, skipping    0.0000000000000000     
  no constraints, skipping    0.0000000000000000     
  no constraints, skipping    0.0000000000000000     

          --------
          Step   2
          --------
                                 NWChem SCF Module
                                 -----------------


                  HF | Equilibrium Geometry | B3LYP/daug-cc-pVDZ



  ao basis        = "ao basis"
  functions       =    48
  atoms           =     2
  alpha electrons =     5
  beta  electrons =     4
  charge          =   1.00
  wavefunction    = UHF 
  input vectors   = ./molecule.movecs
  output vectors  = ./molecule.movecs
  use symmetry    = T
  symmetry adapt  = T


 Forming initial guess at       2.3s


 Starting SCF solution at       2.3s

 Warning: spatial symmetry breaking in UHF:  5.17D-15 1.68D-01
 Warning: spatial symmetry breaking in UHF:  5.12D-15 1.68D-01
 Warning: spatial symmetry breaking in UHF:  5.11D-15 1.68D-01
 Warning: spatial symmetry breaking in UHF:  5.09D-15 1.68D-01
 Warning: spatial symmetry breaking in UHF:  5.10D-15 1.68D-01


       Final UHF  results 
       ------------------ 

         Total SCF energy =    -99.314101990276
      One electron energy =   -143.659227915597
      Two electron energy =     39.638882904565
 Nuclear repulsion energy =      4.706243020757

                       Sz =      0.5000
                 Sz(Sz+1) =      0.7500
                      S^2 =      0.7747

        Time for solution =      0.1s


                   NWChem MP2 Semi-direct Energy/Gradient Module
                   ---------------------------------------------


                  HF | Equilibrium Geometry | B3LYP/daug-cc-pVDZ


  Basis functions       =     48
  Molecular orbitals    =     48
  Frozen core           =      0
  Frozen virtuals       =      0
  Active alpha occupied =      5
  Active beta occupied  =      4
  Active alpha virtual  =     43
  Active beta virtual   =     44
  Use MO symmetry       = F
  Use skeleton AO sym   = T

  AO/Fock/Back tols     =   1.0D-09  1.0D-09  1.0D-09

 GA uses MA = F    GA memory limited = T

 Available: 
  local mem=  2.62D+07
 global mem=  2.62D+07
 local disk=  1.44D+10
  mp2_memr nvloc                     6
  nvloc new                     6
   1 passes of   5:        3084306                       9657                    149087.

 Semi-direct pass number   1 of   1  for UHF alpha       at        2.5s
  vrange nnbf                  1176
Node 0 wrote      0.3 Mb in      0.0 s     Agg I/O rate:  3220.8 Mb/s
 Done moints_semi at        2.5s
  mp2_eaf for ta                     -1
  mp2_eaf for tb                     -1
 Done maket at        2.5s
 Done pijab at        2.5s
 Done wijab at        2.5s
 Done lai at        2.5s
 Done nonsep at        2.6s
 Done multipass loop at        2.6s

 GA uses MA = F    GA memory limited = T

 Available: 
  local mem=  2.62D+07
 global mem=  2.62D+07
 local disk=  1.44D+10
  mp2_memr nvloc                     6
  nvloc new                     6
   1 passes of   4:        3082495                       8730                    120649.

 Semi-direct pass number   1 of   1  for UHF beta        at        2.6s
  vrange nnbf                  1176
Node 0 wrote      0.2 Mb in      0.0 s     Agg I/O rate:  3060.9 Mb/s
 Done moints_semi at        2.6s
  mp2_eaf for ta                     -1
  mp2_eaf for tb                     -1
 Done maket at        2.6s
 Done pijab at        2.6s
 Done wijab at        2.6s
 Done lai at        2.7s
 Done nonsep at        2.7s
 Done multipass loop at        2.7s


          -------------------------------------------
          SCF energy                 -99.314101990276
          Correlation energy          -0.174019999333
          Singlet pairs                0.000000000000
          Triplet pairs                0.000000000000
          Total MP2 energy           -99.488121989609
          -------------------------------------------



          ---------------------------------------------------
                    Spin Component Scaled (SCS) MP2
          Same spin pairs                     -0.041703665582
          Same spin scaling factor             0.333333333333
          Opposite spin pairs                 -0.132316333752
          Opposite spin scaling fact.          1.200000000000
          SCS-MP2 correlation energy          -0.172680822362
          Total SCS-MP2 energy               -99.486782812638
          ---------------------------------------------------

                                NWChem CPHF Module
                                ------------------


    scftype = UHF 
     nalpha =    5
      nbeta =    4
  variables =      391
  tolerance =   1.0D-04
  max. iter =  100

 Warning: spatial symmetry breaking in UHF:  5.10D-15 1.68D-01

 #quartets = 1.814D+04 #integrals = 1.821D+05 #direct =  0.0% #cached =100.0%


 Integral file          = ./molecule.aoints.0
 Record size in doubles =  65536        No. of integs per rec  =  43688
 Max. records in memory =      2        Max. records in file   = 208475
 No. of bits per label  =      8        No. of bits per value  =     64


File balance: exchanges=     0  moved=     0  time=   0.0

 SCF residual:    2.3724678712492299E-007

            ----- linear solve (tol: 1.0E-04 prod-acc: 2.7E-12) -----

               iter nbas    rnorm     rnorm-scal   ratio     time
               ---- ---- ----------- ----------- --------- -------
                  1    1  1.7793E-02  3.3561E-01    0.0000     2.4
                  2    2  4.3926E-03  8.2855E-02    0.2469     2.4
                  3    3  1.3777E-03  2.5986E-02    0.3136     2.4
                  4    4  4.4044E-04  8.3077E-03    0.3197     2.4
                  5    5  1.0606E-04  2.0006E-03    0.2408     2.4
                  6    6  1.8027E-05  3.4003E-04    0.1700     2.4
                  7    7  3.3992E-06  6.4117E-05    0.1886     2.4

 CPHF converged to   6.4D-05 in    7 iters


 Parallel integral file used       8 records with       0 large values

                Dipole Moments (a.u.)
                --------------
         Nuclear       SCF       SCF+MP2
       ----------- ----------- -----------
 X       0.000000   -0.000000   -0.000000
 Y       0.000000    0.000000   -0.000000
 Z       0.550145   -0.926160   -0.877946


 MP2 alpha    natural orbital occupation numbers


              1      
    1    0.9999
    2    0.9960
    3    0.9916
    4    0.9904
    5    0.9876
    6    0.0090
    7    0.0056
    8    0.0050
    9    0.0031
   10    0.0024
   11    0.0023
   12    0.0023
   13    0.0018
   14    0.0018
   15    0.0003
   16    0.0002
   17    0.0002
   18    0.0001
   19    0.0001
   20    0.0001
   21    0.0001
   22    0.0001
   23    0.0000
   24    0.0000
   25    0.0000
   26    0.0000
   27    0.0000
   28    0.0000
   29    0.0000
   30    0.0000
   31    0.0000
   32    0.0000
   33    0.0000
   34    0.0000
   35    0.0000
   36    0.0000
   37    0.0000
   38    0.0000
   39    0.0000
   40    0.0000
   41    0.0000
   42    0.0000
   43    0.0000
   44    0.0000
   45   -0.0000
   46   -0.0000
   47   -0.0000
   48   -0.0000

 MP2 beta     natural orbital occupation numbers


              1      
    1    0.9999
    2    0.9925
    3    0.9878
    4    0.9874
    5    0.0093
    6    0.0080
    7    0.0037
    8    0.0033
    9    0.0020
   10    0.0020
   11    0.0012
   12    0.0010
   13    0.0005
   14    0.0003
   15    0.0002
   16    0.0002
   17    0.0001
   18    0.0001
   19    0.0001
   20    0.0001
   21    0.0001
   22    0.0001
   23    0.0000
   24    0.0000
   25    0.0000
   26    0.0000
   27    0.0000
   28    0.0000
   29    0.0000
   30    0.0000
   31    0.0000
   32    0.0000
   33    0.0000
   34    0.0000
   35    0.0000
   36    0.0000
   37    0.0000
   38    0.0000
   39    0.0000
   40    0.0000
   41    0.0000
   42    0.0000
   43    0.0000
   44    0.0000
   45    0.0000
   46   -0.0000
   47   -0.0000
   48   -0.0000

  MP2 natural orbitals output to ./molecule.mp2nos

  Using symmetry


                         mp2 ENERGY GRADIENTS

    atom               coordinates                        gradient
                 x          y          z           x          y          z
   1 F       0.000000   0.000000   0.246250    0.000000   0.000000   0.005419
   2 H       0.000000   0.000000  -1.666104    0.000000   0.000000  -0.005419

                 ----------------------------------------
                 |  Time  |  1-e(secs)   |  2-e(secs)   |
                 ----------------------------------------
                 |  CPU   |       0.00   |       0.05   |
                 ----------------------------------------
                 |  WALL  |       0.00   |       0.05   |
                 ----------------------------------------
 -----------------------
 Performance information
 -----------------------

 Timer overhead =  5.50D-09 seconds/call

               Nr. of calls         CPU time (s)                 Wall time (s)                GFlops
             ---------------    -------------------     ------------------------------   -------------------
Name         Min   Avg   Max    Min     Avg     Max     Min     Avg     Max   Mx/calls   Min     Max     Sum
mp2: moin     2     2     2   3.71E-2 3.89E-2 3.96E-2  3.96E-2 3.97E-2 3.97E-2 1.99E-2   0.0     0.0     0.0   
mp2: make     2     2     2   4.37E-3 7.29E-3 8.86E-3  8.77E-3 8.82E-3 8.86E-3 4.43E-3   0.0     0.0     0.0   
mp2: pija     2     2     2   7.24E-4 8.05E-4 8.48E-4  8.41E-4 8.44E-4 8.48E-4 4.24E-4   0.0     0.0     0.0   
mp2: wija     2     2     2   7.71E-4 8.52E-4 8.95E-4  8.71E-4 8.91E-4 8.96E-4 4.48E-4   0.0     0.0     0.0   
mp2: lai      2     2     2   9.97E-3 1.00E-2 1.01E-2  1.01E-2 1.01E-2 1.01E-2 5.05E-3   0.0     0.0     0.0   
mp2: back     2     2     2   1.33E-2 1.37E-2 1.38E-2  1.38E-2 1.38E-2 1.38E-2 6.88E-3   0.0     0.0     0.0   
mp2: nons     2     2     2   4.94E-2 7.26E-2 0.11     5.07E-2 7.34E-2 0.11    5.37E-2   0.0     0.0     0.0   
mp2: laif     1     1     1   1.09E-2 1.09E-2 1.09E-2  1.09E-2 1.09E-2 1.09E-2 1.09E-2   0.0     0.0     0.0   
mp2: cphf     1     1     1   9.58E-2 0.10    0.11     0.12    0.12    0.12    0.12      0.0     0.0     0.0   
mp2: wijf     1     1     1   1.21E-2 1.22E-2 1.22E-2  1.22E-2 1.22E-2 1.22E-2 1.22E-2   0.0     0.0     0.0   
mp2: sep      1     1     1   6.71E-2 6.75E-2 6.76E-2  6.76E-2 6.76E-2 6.76E-2 6.76E-2   0.0     0.0     0.0   
mp2: tota     1     1     1   0.42    0.43    0.44     0.47    0.47    0.47    0.47      0.0     0.0     0.0   

 The average no. of pstat calls per process was 1.90D+01
 with a timing overhead of 1.04D-07s

  no constraints, skipping    0.0000000000000000     

  Step       Energy      Delta E   Gmax     Grms     Xrms     Xmax   Walltime
  ---- ---------------- -------- -------- -------- -------- -------- --------
@    2     -99.48812199 -1.3D-06  0.00542  0.00542  0.00228  0.00396      2.9
                                                                    

  no constraints, skipping    0.0000000000000000     
  no constraints, skipping    0.0000000000000000     
  no constraints, skipping    0.0000000000000000     
                                 NWChem SCF Module
                                 -----------------


                  HF | Equilibrium Geometry | B3LYP/daug-cc-pVDZ



  ao basis        = "ao basis"
  functions       =    48
  atoms           =     2
  alpha electrons =     5
  beta  electrons =     4
  charge          =   1.00
  wavefunction    = UHF 
  input vectors   = ./molecule.movecs
  output vectors  = ./molecule.movecs
  use symmetry    = T
  symmetry adapt  = T


 Forming initial guess at       3.0s


 Starting SCF solution at       3.0s

 Warning: spatial symmetry breaking in UHF:  5.10D-15 1.68D-01
 Warning: spatial symmetry breaking in UHF:  5.17D-15 1.68D-01
 Warning: spatial symmetry breaking in UHF:  5.22D-15 1.68D-01
 Warning: spatial symmetry breaking in UHF:  5.21D-15 1.68D-01
 Warning: spatial symmetry breaking in UHF:  5.20D-15 1.68D-01
 Warning: spatial symmetry breaking in UHF:  5.20D-15 1.68D-01
 Warning: spatial symmetry breaking in UHF:  5.20D-15 1.68D-01


       Final UHF  results 
       ------------------ 

         Total SCF energy =    -99.314312525744
      One electron energy =   -143.720703403594
      Two electron energy =     39.655862929808
 Nuclear repulsion energy =      4.750527948042

                       Sz =      0.5000
                 Sz(Sz+1) =      0.7500
                      S^2 =      0.7745

        Time for solution =      0.2s


                   NWChem MP2 Semi-direct Energy/Gradient Module
                   ---------------------------------------------


                  HF | Equilibrium Geometry | B3LYP/daug-cc-pVDZ


  Basis functions       =     48
  Molecular orbitals    =     48
  Frozen core           =      0
  Frozen virtuals       =      0
  Active alpha occupied =      5
  Active beta occupied  =      4
  Active alpha virtual  =     43
  Active beta virtual   =     44
  Use MO symmetry       = F
  Use skeleton AO sym   = T

  AO/Fock/Back tols     =   1.0D-09  1.0D-09  1.0D-09

 GA uses MA = F    GA memory limited = T

 Available: 
  local mem=  2.62D+07
 global mem=  2.62D+07
 local disk=  1.44D+10
  mp2_memr nvloc                     6
  nvloc new                     6
   1 passes of   5:         757562                       8482                    123957.

 Semi-direct pass number   1 of   1  for UHF alpha       at        3.2s
  vrange nnbf                  1176
Node 0 wrote      0.3 Mb in      0.0 s     Agg I/O rate:  4081.6 Mb/s
 Done moints_semi at        3.2s
 Done maket at        3.2s
 Done multipass loop at        3.2s

 GA uses MA = F    GA memory limited = T

 Available: 
  local mem=  2.62D+07
 global mem=  2.62D+07
 local disk=  1.44D+10
  mp2_memr nvloc                     6
  nvloc new                     6
   1 passes of   4:         755799                       7050                     99967.

 Semi-direct pass number   1 of   1  for UHF beta        at        3.2s
  vrange nnbf                  1176
Node 0 wrote      0.2 Mb in      0.0 s     Agg I/O rate:  3530.0 Mb/s
 Done moints_semi at        3.3s
 Done maket at        3.3s
 Done multipass loop at        3.3s


          -------------------------------------------
          SCF energy                 -99.314312525744
          Correlation energy          -0.173738941640
          Singlet pairs                0.000000000000
          Triplet pairs                0.000000000000
          Total MP2 energy           -99.488051467384
          -------------------------------------------



          ---------------------------------------------------
                    Spin Component Scaled (SCS) MP2
          Same spin pairs                     -0.041627383128
          Same spin scaling factor             0.333333333333
          Opposite spin pairs                 -0.132111558512
          Opposite spin scaling fact.          1.200000000000
          SCS-MP2 correlation energy          -0.172409664590
          Total SCS-MP2 energy               -99.486722190334
          ---------------------------------------------------

 -----------------------
 Performance information
 -----------------------

 Timer overhead =  2.17D-07 seconds/call

               Nr. of calls         CPU time (s)                 Wall time (s)                GFlops
             ---------------    -------------------     ------------------------------   -------------------
Name         Min   Avg   Max    Min     Avg     Max     Min     Avg     Max   Mx/calls   Min     Max     Sum
mp2: moin     2     2     2   3.46E-2 3.77E-2 3.86E-2  3.91E-2 3.92E-2 3.92E-2 1.96E-2   0.0     0.0     0.0   
mp2: make     2     2     2   5.04E-3 7.29E-3 7.78E-3  7.76E-3 7.78E-3 7.79E-3 3.89E-3   0.0     0.0     0.0   
mp2: tota     1     1     1   7.01E-2 7.38E-2 7.77E-2  9.39E-2 9.39E-2 9.39E-2 9.39E-2   0.0     0.0     0.0   

 The average no. of pstat calls per process was 5.00D+00
 with a timing overhead of 1.08D-06s

 Line search: 
     step= 1.00 grad=-9.7D-05 hess= 1.7D-04 energy=    -99.488051 mode=bracket 
 new step= 0.29                   predicted energy=    -99.488136
  no constraints, skipping    0.0000000000000000     
  no constraints, skipping    0.0000000000000000     
  no constraints, skipping    0.0000000000000000     

          --------
          Step   3
          --------
                                 NWChem SCF Module
                                 -----------------


                  HF | Equilibrium Geometry | B3LYP/daug-cc-pVDZ



  ao basis        = "ao basis"
  functions       =    48
  atoms           =     2
  alpha electrons =     5
  beta  electrons =     4
  charge          =   1.00
  wavefunction    = UHF 
  input vectors   = ./molecule.movecs
  output vectors  = ./molecule.movecs
  use symmetry    = T
  symmetry adapt  = T


 Forming initial guess at       3.3s


 Starting SCF solution at       3.3s

 Warning: spatial symmetry breaking in UHF:  5.21D-15 1.68D-01
 Warning: spatial symmetry breaking in UHF:  5.15D-15 1.68D-01
 Warning: spatial symmetry breaking in UHF:  5.12D-15 1.68D-01
 Warning: spatial symmetry breaking in UHF:  5.13D-15 1.68D-01
 Warning: spatial symmetry breaking in UHF:  5.13D-15 1.68D-01
 Warning: spatial symmetry breaking in UHF:  5.13D-15 1.68D-01
 Warning: spatial symmetry breaking in UHF:  5.13D-15 1.68D-01


       Final UHF  results 
       ------------------ 

         Total SCF energy =    -99.314172994845
      One electron energy =   -143.676861713968
      Two electron energy =     39.643731612648
 Nuclear repulsion energy =      4.718957106475

                       Sz =      0.5000
                 Sz(Sz+1) =      0.7500
                      S^2 =      0.7746

        Time for solution =      0.2s


                   NWChem MP2 Semi-direct Energy/Gradient Module
                   ---------------------------------------------


                  HF | Equilibrium Geometry | B3LYP/daug-cc-pVDZ


  Basis functions       =     48
  Molecular orbitals    =     48
  Frozen core           =      0
  Frozen virtuals       =      0
  Active alpha occupied =      5
  Active beta occupied  =      4
  Active alpha virtual  =     43
  Active beta virtual   =     44
  Use MO symmetry       = F
  Use skeleton AO sym   = T

  AO/Fock/Back tols     =   1.0D-09  1.0D-09  1.0D-09

 GA uses MA = F    GA memory limited = T

 Available: 
  local mem=  2.62D+07
 global mem=  2.62D+07
 local disk=  1.44D+10
  mp2_memr nvloc                     6
  nvloc new                     6
   1 passes of   5:        3084306                       9657                    149087.

 Semi-direct pass number   1 of   1  for UHF alpha       at        3.5s
  vrange nnbf                  1176
Node 0 wrote      0.3 Mb in      0.0 s     Agg I/O rate:  3298.6 Mb/s
 Done moints_semi at        3.5s
  mp2_eaf for ta                     -1
  mp2_eaf for tb                     -1
 Done maket at        3.5s
 Done pijab at        3.5s
 Done wijab at        3.5s
 Done lai at        3.5s
 Done nonsep at        3.6s
 Done multipass loop at        3.6s

 GA uses MA = F    GA memory limited = T

 Available: 
  local mem=  2.62D+07
 global mem=  2.62D+07
 local disk=  1.44D+10
  mp2_memr nvloc                     6
  nvloc new                     6
   1 passes of   4:        3082495                       8730                    120649.

 Semi-direct pass number   1 of   1  for UHF beta        at        3.6s
  vrange nnbf                  1176
Node 0 wrote      0.2 Mb in      0.0 s     Agg I/O rate:  2622.9 Mb/s
 Done moints_semi at        3.6s
  mp2_eaf for ta                     -1
  mp2_eaf for tb                     -1
 Done maket at        3.7s
 Done pijab at        3.7s
 Done wijab at        3.7s
 Done lai at        3.7s
 Done nonsep at        3.7s
 Done multipass loop at        3.7s


          -------------------------------------------
          SCF energy                 -99.314172994845
          Correlation energy          -0.173939273795
          Singlet pairs                0.000000000000
          Triplet pairs                0.000000000000
          Total MP2 energy           -99.488112268639
          -------------------------------------------



          ---------------------------------------------------
                    Spin Component Scaled (SCS) MP2
          Same spin pairs                     -0.041681723548
          Same spin scaling factor             0.333333333333
          Opposite spin pairs                 -0.132257550247
          Opposite spin scaling fact.          1.200000000000
          SCS-MP2 correlation energy          -0.172602968146
          Total SCS-MP2 energy               -99.486775962990
          ---------------------------------------------------

                                NWChem CPHF Module
                                ------------------


    scftype = UHF 
     nalpha =    5
      nbeta =    4
  variables =      391
  tolerance =   1.0D-04
  max. iter =  100

 Warning: spatial symmetry breaking in UHF:  5.13D-15 1.68D-01

 #quartets = 1.814D+04 #integrals = 1.821D+05 #direct =  0.0% #cached =100.0%


 Integral file          = ./molecule.aoints.0
 Record size in doubles =  65536        No. of integs per rec  =  43688
 Max. records in memory =      2        Max. records in file   = 208475
 No. of bits per label  =      8        No. of bits per value  =     64


File balance: exchanges=     0  moved=     0  time=   0.0

 SCF residual:    6.1134090192061590E-008

            ----- linear solve (tol: 1.0E-04 prod-acc: 2.7E-12) -----

               iter nbas    rnorm     rnorm-scal   ratio     time
               ---- ---- ----------- ----------- --------- -------
                  1    1  1.7741E-02  3.3503E-01    0.0000     3.2
                  2    2  4.3748E-03  8.2616E-02    0.2466     3.2
                  3    3  1.3650E-03  2.5777E-02    0.3120     3.3
                  4    4  4.3527E-04  8.2198E-03    0.3189     3.3
                  5    5  1.0485E-04  1.9801E-03    0.2409     3.3
                  6    6  1.7830E-05  3.3671E-04    0.1700     3.3
                  7    7  3.3608E-06  6.3467E-05    0.1885     3.3

 CPHF converged to   6.3D-05 in    7 iters


 Parallel integral file used       8 records with       0 large values

                Dipole Moments (a.u.)
                --------------
         Nuclear       SCF       SCF+MP2
       ----------- ----------- -----------
 X       0.000000   -0.000000   -0.000000
 Y       0.000000    0.000000   -0.000000
 Z       0.529536   -0.924158   -0.876330


 MP2 alpha    natural orbital occupation numbers


              1      
    1    0.9999
    2    0.9960
    3    0.9916
    4    0.9904
    5    0.9876
    6    0.0090
    7    0.0056
    8    0.0050
    9    0.0031
   10    0.0024
   11    0.0023
   12    0.0023
   13    0.0018
   14    0.0018
   15    0.0003
   16    0.0002
   17    0.0002
   18    0.0001
   19    0.0001
   20    0.0001
   21    0.0001
   22    0.0001
   23    0.0000
   24    0.0000
   25    0.0000
   26    0.0000
   27    0.0000
   28    0.0000
   29    0.0000
   30    0.0000
   31    0.0000
   32    0.0000
   33    0.0000
   34    0.0000
   35    0.0000
   36    0.0000
   37    0.0000
   38    0.0000
   39    0.0000
   40    0.0000
   41    0.0000
   42    0.0000
   43    0.0000
   44    0.0000
   45   -0.0000
   46   -0.0000
   47   -0.0000
   48   -0.0000

 MP2 beta     natural orbital occupation numbers


              1      
    1    0.9999
    2    0.9925
    3    0.9878
    4    0.9875
    5    0.0093
    6    0.0080
    7    0.0037
    8    0.0033
    9    0.0020
   10    0.0020
   11    0.0012
   12    0.0010
   13    0.0005
   14    0.0003
   15    0.0002
   16    0.0002
   17    0.0001
   18    0.0001
   19    0.0001
   20    0.0001
   21    0.0001
   22    0.0001
   23    0.0000
   24    0.0000
   25    0.0000
   26    0.0000
   27    0.0000
   28    0.0000
   29    0.0000
   30    0.0000
   31    0.0000
   32    0.0000
   33    0.0000
   34    0.0000
   35    0.0000
   36    0.0000
   37    0.0000
   38    0.0000
   39    0.0000
   40    0.0000
   41    0.0000
   42    0.0000
   43    0.0000
   44    0.0000
   45    0.0000
   46   -0.0000
   47   -0.0000
   48   -0.0000

  MP2 natural orbitals output to ./molecule.mp2nos

  Using symmetry


                         mp2 ENERGY GRADIENTS

    atom               coordinates                        gradient
                 x          y          z           x          y          z
   1 F       0.000000   0.000000   0.243674    0.000000   0.000000   0.003809
   2 H       0.000000   0.000000  -1.663527    0.000000   0.000000  -0.003809

                 ----------------------------------------
                 |  Time  |  1-e(secs)   |  2-e(secs)   |
                 ----------------------------------------
                 |  CPU   |       0.00   |       0.05   |
                 ----------------------------------------
                 |  WALL  |       0.00   |       0.05   |
                 ----------------------------------------
 -----------------------
 Performance information
 -----------------------

 Timer overhead =  2.39D-07 seconds/call

               Nr. of calls         CPU time (s)                 Wall time (s)                GFlops
             ---------------    -------------------     ------------------------------   -------------------
Name         Min   Avg   Max    Min     Avg     Max     Min     Avg     Max   Mx/calls   Min     Max     Sum
mp2: moin     2     2     2   3.67E-2 4.02E-2 4.19E-2  4.22E-2 4.22E-2 4.23E-2 2.11E-2   0.0     0.0     0.0   
mp2: make     2     2     2   5.62E-3 8.47E-3 9.21E-3  9.13E-3 9.19E-3 9.26E-3 4.63E-3   0.0     0.0     0.0   
mp2: pija     2     2     2   9.45E-4 1.00E-3 1.02E-3  1.02E-3 1.02E-3 1.02E-3 5.11E-4   0.0     0.0     0.0   
mp2: wija     2     2     2   9.45E-4 9.97E-4 1.02E-3  9.86E-4 1.01E-3 1.02E-3 5.09E-4   0.0     0.0     0.0   
mp2: lai      2     2     2   1.18E-2 1.21E-2 1.22E-2  1.22E-2 1.22E-2 1.22E-2 6.10E-3   0.0     0.0     0.0   
mp2: back     2     2     2   1.71E-2 1.71E-2 1.71E-2  1.71E-2 1.71E-2 1.71E-2 8.55E-3   0.0     0.0     0.0   
mp2: nons     2     2     2   6.20E-2 7.51E-2 9.45E-2  6.20E-2 7.51E-2 9.45E-2 4.72E-2   0.0     0.0     0.0   
mp2: laif     1     1     1   8.81E-3 9.84E-3 1.28E-2  1.28E-2 1.28E-2 1.28E-2 1.28E-2   0.0     0.0     0.0   
mp2: cphf     1     1     1   9.02E-2 9.76E-2 0.10     0.11    0.11    0.11    0.11      0.0     0.0     0.0   
mp2: wijf     1     1     1   1.24E-2 1.25E-2 1.25E-2  1.25E-2 1.25E-2 1.25E-2 1.25E-2   0.0     0.0     0.0   
mp2: sep      1     1     1   6.72E-2 6.73E-2 6.75E-2  6.75E-2 6.75E-2 6.75E-2 6.75E-2   0.0     0.0     0.0   
mp2: tota     1     1     1   0.42    0.43    0.44     0.47    0.47    0.47    0.47      0.0     0.0     0.0   

 The average no. of pstat calls per process was 1.90D+01
 with a timing overhead of 4.53D-06s

  no constraints, skipping    0.0000000000000000     

  Step       Energy      Delta E   Gmax     Grms     Xrms     Xmax   Walltime
  ---- ---------------- -------- -------- -------- -------- -------- --------
@    3     -99.48811227  9.7D-06  0.00381  0.00381  0.00149  0.00258      4.0
                                                                    

 Restricting overall step due to uphill motion.   alpha=  0.50
  no constraints, skipping    0.0000000000000000     
  no constraints, skipping    0.0000000000000000     
  no constraints, skipping    0.0000000000000000     
                                 NWChem SCF Module
                                 -----------------


                  HF | Equilibrium Geometry | B3LYP/daug-cc-pVDZ



  ao basis        = "ao basis"
  functions       =    48
  atoms           =     2
  alpha electrons =     5
  beta  electrons =     4
  charge          =   1.00
  wavefunction    = UHF 
  input vectors   = ./molecule.movecs
  output vectors  = ./molecule.movecs
  use symmetry    = T
  symmetry adapt  = T


 Forming initial guess at       4.0s


 Starting SCF solution at       4.0s

 Warning: spatial symmetry breaking in UHF:  5.13D-15 1.68D-01
 Warning: spatial symmetry breaking in UHF:  5.16D-15 1.68D-01
 Warning: spatial symmetry breaking in UHF:  5.17D-15 1.68D-01
 Warning: spatial symmetry breaking in UHF:  5.17D-15 1.68D-01
 Warning: spatial symmetry breaking in UHF:  5.17D-15 1.68D-01
 Warning: spatial symmetry breaking in UHF:  5.17D-15 1.68D-01


       Final UHF  results 
       ------------------ 

         Total SCF energy =    -99.314246435136
      One electron energy =   -143.697861998991
      Two electron energy =     39.649529055535
 Nuclear repulsion energy =      4.734086508319

                       Sz =      0.5000
                 Sz(Sz+1) =      0.7500
                      S^2 =      0.7746

        Time for solution =      0.1s


                   NWChem MP2 Semi-direct Energy/Gradient Module
                   ---------------------------------------------


                  HF | Equilibrium Geometry | B3LYP/daug-cc-pVDZ


  Basis functions       =     48
  Molecular orbitals    =     48
  Frozen core           =      0
  Frozen virtuals       =      0
  Active alpha occupied =      5
  Active beta occupied  =      4
  Active alpha virtual  =     43
  Active beta virtual   =     44
  Use MO symmetry       = F
  Use skeleton AO sym   = T

  AO/Fock/Back tols     =   1.0D-09  1.0D-09  1.0D-09

 GA uses MA = F    GA memory limited = T

 Available: 
  local mem=  2.62D+07
 global mem=  2.62D+07
 local disk=  1.44D+10
  mp2_memr nvloc                     6
  nvloc new                     6
   1 passes of   5:         757562                       8482                    123957.

 Semi-direct pass number   1 of   1  for UHF alpha       at        4.2s
  vrange nnbf                  1176
Node 0 wrote      0.3 Mb in      0.0 s     Agg I/O rate:   432.9 Mb/s
 Done moints_semi at        4.2s
 Done maket at        4.2s
 Done multipass loop at        4.2s

 GA uses MA = F    GA memory limited = T

 Available: 
  local mem=  2.62D+07
 global mem=  2.62D+07
 local disk=  1.44D+10
  mp2_memr nvloc                     6
  nvloc new                     6
   1 passes of   4:         755799                       7050                     99967.

 Semi-direct pass number   1 of   1  for UHF beta        at        4.2s
  vrange nnbf                  1176
Node 0 wrote      0.2 Mb in      0.0 s     Agg I/O rate:  3563.2 Mb/s
 Done moints_semi at        4.2s
 Done maket at        4.2s
 Done multipass loop at        4.2s


          -------------------------------------------
          SCF energy                 -99.314246435136
          Correlation energy          -0.173843244358
          Singlet pairs                0.000000000000
          Triplet pairs                0.000000000000
          Total MP2 energy           -99.488089679494
          -------------------------------------------



          ---------------------------------------------------
                    Spin Component Scaled (SCS) MP2
          Same spin pairs                     -0.041655655931
          Same spin scaling factor             0.333333333333
          Opposite spin pairs                 -0.132187588427
          Opposite spin scaling fact.          1.200000000000
          SCS-MP2 correlation energy          -0.172510324756
          Total SCS-MP2 energy               -99.486756759892
          ---------------------------------------------------

 -----------------------
 Performance information
 -----------------------

 Timer overhead =  2.99D-07 seconds/call

               Nr. of calls         CPU time (s)                 Wall time (s)                GFlops
             ---------------    -------------------     ------------------------------   -------------------
Name         Min   Avg   Max    Min     Avg     Max     Min     Avg     Max   Mx/calls   Min     Max     Sum
mp2: moin     2     2     2   3.96E-2 4.03E-2 4.19E-2  4.28E-2 4.29E-2 4.29E-2 2.15E-2   0.0     0.0     0.0   
mp2: make     2     2     2   3.86E-3 4.99E-3 6.39E-3  7.66E-3 7.68E-3 7.69E-3 3.84E-3   0.0     0.0     0.0   
mp2: tota     1     1     1   6.42E-2 7.20E-2 7.62E-2  9.62E-2 9.62E-2 9.62E-2 9.62E-2   0.0     0.0     0.0   

 The average no. of pstat calls per process was 5.00D+00
 with a timing overhead of 1.50D-06s

 Line search: 
     step= 0.50 grad=-4.6D-05 hess= 1.8D-04 energy=    -99.488090 mode=bracket 
 new step= 0.13                   predicted energy=    -99.488115
  no constraints, skipping    0.0000000000000000     
  no constraints, skipping    0.0000000000000000     
  no constraints, skipping    0.0000000000000000     

          --------
          Step   4
          --------
                                 NWChem SCF Module
                                 -----------------


                  HF | Equilibrium Geometry | B3LYP/daug-cc-pVDZ



  ao basis        = "ao basis"
  functions       =    48
  atoms           =     2
  alpha electrons =     5
  beta  electrons =     4
  charge          =   1.00
  wavefunction    = UHF 
  input vectors   = ./molecule.movecs
  output vectors  = ./molecule.movecs
  use symmetry    = T
  symmetry adapt  = T


 Forming initial guess at       4.2s


 Starting SCF solution at       4.3s

 Warning: spatial symmetry breaking in UHF:  5.17D-15 1.68D-01
 Warning: spatial symmetry breaking in UHF:  5.15D-15 1.68D-01
 Warning: spatial symmetry breaking in UHF:  5.14D-15 1.68D-01
 Warning: spatial symmetry breaking in UHF:  5.14D-15 1.68D-01
 Warning: spatial symmetry breaking in UHF:  5.14D-15 1.68D-01
 Warning: spatial symmetry breaking in UHF:  5.14D-15 1.68D-01


       Final UHF  results 
       ------------------ 

         Total SCF energy =    -99.314192699759
      One electron energy =   -143.682169327423
      Two electron energy =     39.645194494465
 Nuclear repulsion energy =      4.722782133199

                       Sz =      0.5000
                 Sz(Sz+1) =      0.7500
                      S^2 =      0.7746

        Time for solution =      0.1s


                   NWChem MP2 Semi-direct Energy/Gradient Module
                   ---------------------------------------------


                  HF | Equilibrium Geometry | B3LYP/daug-cc-pVDZ


  Basis functions       =     48
  Molecular orbitals    =     48
  Frozen core           =      0
  Frozen virtuals       =      0
  Active alpha occupied =      5
  Active beta occupied  =      4
  Active alpha virtual  =     43
  Active beta virtual   =     44
  Use MO symmetry       = F
  Use skeleton AO sym   = T

  AO/Fock/Back tols     =   1.0D-09  1.0D-09  1.0D-09

 GA uses MA = F    GA memory limited = T

 Available: 
  local mem=  2.62D+07
 global mem=  2.62D+07
 local disk=  1.44D+10
  mp2_memr nvloc                     6
  nvloc new                     6
   1 passes of   5:        3084306                       9657                    149087.

 Semi-direct pass number   1 of   1  for UHF alpha       at        4.5s
  vrange nnbf                  1176
Node 0 wrote      0.3 Mb in      0.0 s     Agg I/O rate:  3453.3 Mb/s
 Done moints_semi at        4.5s
  mp2_eaf for ta                     -1
  mp2_eaf for tb                     -1
 Done maket at        4.5s
 Done pijab at        4.5s
 Done wijab at        4.5s
 Done lai at        4.5s
 Done nonsep at        4.6s
 Done multipass loop at        4.6s

 GA uses MA = F    GA memory limited = T

 Available: 
  local mem=  2.62D+07
 global mem=  2.62D+07
 local disk=  1.44D+10
  mp2_memr nvloc                     6
  nvloc new                     6
   1 passes of   4:        3082495                       8730                    120649.

 Semi-direct pass number   1 of   1  for UHF beta        at        4.6s
  vrange nnbf                  1176
Node 0 wrote      0.2 Mb in      0.0 s     Agg I/O rate:  3693.8 Mb/s
 Done moints_semi at        4.6s
  mp2_eaf for ta                     -1
  mp2_eaf for tb                     -1
 Done maket at        4.6s
 Done pijab at        4.6s
 Done wijab at        4.6s
 Done lai at        4.6s
 Done nonsep at        4.7s
 Done multipass loop at        4.7s


          -------------------------------------------
          SCF energy                 -99.314192699759
          Correlation energy          -0.173914990891
          Singlet pairs                0.000000000000
          Triplet pairs                0.000000000000
          Total MP2 energy           -99.488107690650
[...]
 with a timing overhead of 4.60D-06s

  no constraints, skipping    0.0000000000000000     

  Step       Energy      Delta E   Gmax     Grms     Xrms     Xmax   Walltime
  ---- ---------------- -------- -------- -------- -------- -------- --------
@   29     -99.48806704  1.7D-07  0.00049  0.00049  0.00001  0.00001     28.9
                                                       ok       ok  

 Restricting overall step due to uphill motion.   alpha=  0.25
  no constraints, skipping    0.0000000000000000     
  no constraints, skipping    0.0000000000000000     
  no constraints, skipping    0.0000000000000000     
                                 NWChem SCF Module
                                 -----------------


                  HF | Equilibrium Geometry | B3LYP/daug-cc-pVDZ



  ao basis        = "ao basis"
  functions       =    48
  atoms           =     2
  alpha electrons =     5
  beta  electrons =     4
  charge          =   1.00
  wavefunction    = UHF 
  input vectors   = ./molecule.movecs
  output vectors  = ./molecule.movecs
  use symmetry    = T
  symmetry adapt  = T


 Forming initial guess at      28.9s


 Starting SCF solution at      28.9s

 Warning: spatial symmetry breaking in UHF:  5.19D-15 1.68D-01
 Warning: spatial symmetry breaking in UHF:  5.19D-15 1.68D-01
 Warning: spatial symmetry breaking in UHF:  5.19D-15 1.68D-01
 Warning: spatial symmetry breaking in UHF:  5.19D-15 1.68D-01
 Warning: spatial symmetry breaking in UHF:  5.19D-15 1.68D-01
 Warning: spatial symmetry breaking in UHF:  5.19D-15 1.68D-01


       Final UHF  results 
       ------------------ 

         Total SCF energy =    -99.314293741260
      One electron energy =   -143.713681388802
      Two electron energy =     39.653912633352
 Nuclear repulsion energy =      4.745475014189

                       Sz =      0.5000
                 Sz(Sz+1) =      0.7500
                      S^2 =      0.7745

        Time for solution =      0.1s


                   NWChem MP2 Semi-direct Energy/Gradient Module
                   ---------------------------------------------


                  HF | Equilibrium Geometry | B3LYP/daug-cc-pVDZ


  Basis functions       =     48
  Molecular orbitals    =     48
  Frozen core           =      0
  Frozen virtuals       =      0
  Active alpha occupied =      5
  Active beta occupied  =      4
  Active alpha virtual  =     43
  Active beta virtual   =     44
  Use MO symmetry       = F
  Use skeleton AO sym   = T

  AO/Fock/Back tols     =   1.0D-09  1.0D-09  1.0D-09

 GA uses MA = F    GA memory limited = T

 Available: 
  local mem=  2.62D+07
 global mem=  2.62D+07
 local disk=  1.44D+10
  mp2_memr nvloc                     6
  nvloc new                     6
   1 passes of   5:         757562                       8482                    123957.

 Semi-direct pass number   1 of   1  for UHF alpha       at       29.1s
  vrange nnbf                  1176
Node 0 wrote      0.3 Mb in      0.0 s     Agg I/O rate:  3267.4 Mb/s
 Done moints_semi at       29.1s
 Done maket at       29.1s
 Done multipass loop at       29.1s

 GA uses MA = F    GA memory limited = T

 Available: 
  local mem=  2.62D+07
 global mem=  2.62D+07
 local disk=  1.44D+10
  mp2_memr nvloc                     6
  nvloc new                     6
   1 passes of   4:         755799                       7050                     99967.

 Semi-direct pass number   1 of   1  for UHF beta        at       29.1s
  vrange nnbf                  1176
Node 0 wrote      0.2 Mb in      0.0 s     Agg I/O rate:  2010.8 Mb/s
 Done moints_semi at       29.1s
 Done maket at       29.1s
 Done multipass loop at       29.1s


          -------------------------------------------
          SCF energy                 -99.314293741260
          Correlation energy          -0.173770989924
          Singlet pairs                0.000000000000
          Triplet pairs                0.000000000000
          Total MP2 energy           -99.488064731184
          -------------------------------------------



          ---------------------------------------------------
                    Spin Component Scaled (SCS) MP2
          Same spin pairs                     -0.041636065843
          Same spin scaling factor             0.333333333333
          Opposite spin pairs                 -0.132134924081
          Opposite spin scaling fact.          1.200000000000
          SCS-MP2 correlation energy          -0.172440597511
          Total SCS-MP2 energy               -99.486734338772
          ---------------------------------------------------

 -----------------------
 Performance information
 -----------------------

 Timer overhead =  1.83D-07 seconds/call

               Nr. of calls         CPU time (s)                 Wall time (s)                GFlops
             ---------------    -------------------     ------------------------------   -------------------
Name         Min   Avg   Max    Min     Avg     Max     Min     Avg     Max   Mx/calls   Min     Max     Sum
mp2: moin     2     2     2   3.37E-2 4.11E-2 4.33E-2  4.34E-2 4.35E-2 4.35E-2 2.17E-2   0.0     0.0     0.0   
mp2: make     2     2     2   3.24E-3 6.19E-3 8.69E-3  8.66E-3 8.68E-3 8.69E-3 4.34E-3   0.0     0.0     0.0   
mp2: tota     1     1     1   6.47E-2 7.55E-2 8.05E-2  0.10    0.10    0.10    0.10      0.0     0.0     0.0   

 The average no. of pstat calls per process was 5.00D+00
 with a timing overhead of 9.15D-07s

 Line search: 
     step= 0.25 grad=-7.3D-07 hess= 4.0D-05 energy=    -99.488065 mode=bracket 
 new step= 0.01                   predicted energy=    -99.488067
  no constraints, skipping    0.0000000000000000     
  no constraints, skipping    0.0000000000000000     
  no constraints, skipping    0.0000000000000000     

          --------
          Step  30
          --------
                                 NWChem SCF Module
                                 -----------------


                  HF | Equilibrium Geometry | B3LYP/daug-cc-pVDZ



  ao basis        = "ao basis"
  functions       =    48
  atoms           =     2
  alpha electrons =     5
  beta  electrons =     4
  charge          =   1.00
  wavefunction    = UHF 
  input vectors   = ./molecule.movecs
  output vectors  = ./molecule.movecs
  use symmetry    = T
  symmetry adapt  = T


 Forming initial guess at      29.2s


 Starting SCF solution at      29.2s

 Warning: spatial symmetry breaking in UHF:  5.19D-15 1.68D-01
 Warning: spatial symmetry breaking in UHF:  5.19D-15 1.68D-01
 Warning: spatial symmetry breaking in UHF:  5.19D-15 1.68D-01
 Warning: spatial symmetry breaking in UHF:  5.19D-15 1.68D-01
 Warning: spatial symmetry breaking in UHF:  5.19D-15 1.68D-01
 Warning: spatial symmetry breaking in UHF:  5.19D-15 1.68D-01


       Final UHF  results 
       ------------------ 

         Total SCF energy =    -99.314290247796
      One electron energy =   -143.712428853252
      Two electron energy =     39.653565055093
 Nuclear repulsion energy =      4.744573550363

                       Sz =      0.5000
                 Sz(Sz+1) =      0.7500
                      S^2 =      0.7745

        Time for solution =      0.1s


                   NWChem MP2 Semi-direct Energy/Gradient Module
                   ---------------------------------------------


                  HF | Equilibrium Geometry | B3LYP/daug-cc-pVDZ


  Basis functions       =     48
  Molecular orbitals    =     48
  Frozen core           =      0
  Frozen virtuals       =      0
  Active alpha occupied =      5
  Active beta occupied  =      4
  Active alpha virtual  =     43
  Active beta virtual   =     44
  Use MO symmetry       = F
  Use skeleton AO sym   = T

  AO/Fock/Back tols     =   1.0D-09  1.0D-09  1.0D-09

 GA uses MA = F    GA memory limited = T

 Available: 
  local mem=  2.62D+07
 global mem=  2.62D+07
 local disk=  1.44D+10
  mp2_memr nvloc                     6
  nvloc new                     6
   1 passes of   5:        3084306                       9657                    149087.

 Semi-direct pass number   1 of   1  for UHF alpha       at       29.3s
  vrange nnbf                  1176
Node 0 wrote      0.3 Mb in      0.0 s     Agg I/O rate:  3605.5 Mb/s
 Done moints_semi at       29.4s
  mp2_eaf for ta                     -1
  mp2_eaf for tb                     -1
 Done maket at       29.4s
 Done pijab at       29.4s
 Done wijab at       29.4s
 Done lai at       29.4s
 Done nonsep at       29.4s
 Done multipass loop at       29.4s

 GA uses MA = F    GA memory limited = T

 Available: 
  local mem=  2.62D+07
 global mem=  2.62D+07
 local disk=  1.44D+10
  mp2_memr nvloc                     6
  nvloc new                     6
   1 passes of   4:        3082495                       8730                    120649.

 Semi-direct pass number   1 of   1  for UHF beta        at       29.5s
  vrange nnbf                  1176
Node 0 wrote      0.2 Mb in      0.0 s     Agg I/O rate:  3092.2 Mb/s
 Done moints_semi at       29.5s
  mp2_eaf for ta                     -1
  mp2_eaf for tb                     -1
 Done maket at       29.5s
 Done pijab at       29.5s
 Done wijab at       29.5s
 Done lai at       29.5s
 Done nonsep at       29.6s
 Done multipass loop at       29.6s


          -------------------------------------------
          SCF energy                 -99.314290247796
          Correlation energy          -0.173776707692
          Singlet pairs                0.000000000000
          Triplet pairs                0.000000000000
          Total MP2 energy           -99.488066955488
          -------------------------------------------



          ---------------------------------------------------
                    Spin Component Scaled (SCS) MP2
          Same spin pairs                     -0.041637615256
          Same spin scaling factor             0.333333333333
          Opposite spin pairs                 -0.132139092436
          Opposite spin scaling fact.          1.200000000000
          SCS-MP2 correlation energy          -0.172446116009
          Total SCS-MP2 energy               -99.486736363805
          ---------------------------------------------------

                                NWChem CPHF Module
                                ------------------


    scftype = UHF 
     nalpha =    5
      nbeta =    4
  variables =      391
  tolerance =   1.0D-04
  max. iter =  100

 Warning: spatial symmetry breaking in UHF:  5.19D-15 1.68D-01

 #quartets = 1.814D+04 #integrals = 1.821D+05 #direct =  0.0% #cached =100.0%


 Integral file          = ./molecule.aoints.0
 Record size in doubles =  65536        No. of integs per rec  =  43688
 Max. records in memory =      2        Max. records in file   = 208475
 No. of bits per label  =      8        No. of bits per value  =     64


File balance: exchanges=     0  moved=     0  time=   0.0

 SCF residual:    3.2695907255396260E-008

            ----- linear solve (tol: 1.0E-04 prod-acc: 2.7E-12) -----

               iter nbas    rnorm     rnorm-scal   ratio     time
               ---- ---- ----------- ----------- --------- -------
                  1    1  1.7638E-02  3.3387E-01    0.0000    25.6
                  2    2  4.3396E-03  8.2145E-02    0.2460    25.6
                  3    3  1.3400E-03  2.5365E-02    0.3088    25.6
                  4    4  4.2504E-04  8.0457E-03    0.3172    25.6
                  5    5  1.0246E-04  1.9395E-03    0.2411    25.6
                  6    6  1.7439E-05  3.3011E-04    0.1702    25.6
                  7    7  3.2849E-06  6.2180E-05    0.1884    25.6

 CPHF converged to   6.2D-05 in    7 iters


 Parallel integral file used       8 records with       0 large values

                Dipole Moments (a.u.)
                --------------
         Nuclear       SCF       SCF+MP2
       ----------- ----------- -----------
 X       0.000000   -0.000000   -0.000000
 Y       0.000000    0.000000   -0.000000
 Z       0.488347   -0.920195   -0.873134


 MP2 alpha    natural orbital occupation numbers


              1      
    1    0.9999
    2    0.9960
    3    0.9917
    4    0.9904
    5    0.9877
    6    0.0089
    7    0.0056
    8    0.0050
    9    0.0031
   10    0.0024
   11    0.0023
   12    0.0023
   13    0.0018
   14    0.0018
   15    0.0003
   16    0.0002
   17    0.0002
   18    0.0001
   19    0.0001
   20    0.0001
   21    0.0001
   22    0.0001
   23    0.0001
   24    0.0001
   25    0.0000
   26    0.0000
   27    0.0000
   28    0.0000
   29    0.0000
   30    0.0000
   31    0.0000
   32    0.0000
   33    0.0000
   34    0.0000
   35    0.0000
   36    0.0000
   37    0.0000
   38    0.0000
   39    0.0000
   40    0.0000
   41    0.0000
   42    0.0000
   43    0.0000
   44    0.0000
   45   -0.0000
   46   -0.0000
   47   -0.0000
   48   -0.0000

 MP2 beta     natural orbital occupation numbers


              1      
    1    0.9999
    2    0.9926
    3    0.9878
    4    0.9876
    5    0.0092
    6    0.0080
    7    0.0037
    8    0.0033
    9    0.0020
   10    0.0020
   11    0.0012
   12    0.0010
   13    0.0005
   14    0.0003
   15    0.0002
   16    0.0002
   17    0.0001
   18    0.0001
   19    0.0001
   20    0.0001
   21    0.0001
   22    0.0001
   23    0.0000
   24    0.0000
   25    0.0000
   26    0.0000
   27    0.0000
   28    0.0000
   29    0.0000
   30    0.0000
   31    0.0000
   32    0.0000
   33    0.0000
   34    0.0000
   35    0.0000
   36    0.0000
   37    0.0000
   38    0.0000
   39    0.0000
   40    0.0000
   41    0.0000
   42    0.0000
   43    0.0000
   44    0.0000
   45    0.0000
   46   -0.0000
   47   -0.0000
   48   -0.0000

  MP2 natural orbitals output to ./molecule.mp2nos

  Using symmetry


                         mp2 ENERGY GRADIENTS

    atom               coordinates                        gradient
                 x          y          z           x          y          z
   1 F       0.000000   0.000000   0.238525    0.000000   0.000000   0.000485
   2 H       0.000000   0.000000  -1.658379    0.000000   0.000000  -0.000485

                 ----------------------------------------
                 |  Time  |  1-e(secs)   |  2-e(secs)   |
                 ----------------------------------------
                 |  CPU   |       0.00   |       0.05   |
                 ----------------------------------------
                 |  WALL  |       0.00   |       0.05   |
                 ----------------------------------------
 -----------------------
 Performance information
 -----------------------

 Timer overhead =  1.47D-07 seconds/call

               Nr. of calls         CPU time (s)                 Wall time (s)                GFlops
             ---------------    -------------------     ------------------------------   -------------------
Name         Min   Avg   Max    Min     Avg     Max     Min     Avg     Max   Mx/calls   Min     Max     Sum
mp2: moin     2     2     2   3.21E-2 3.51E-2 3.63E-2  4.07E-2 4.08E-2 4.08E-2 2.04E-2   0.0     0.0     0.0   
mp2: make     2     2     2   7.49E-3 9.36E-3 1.10E-2  1.09E-2 1.09E-2 1.10E-2 5.52E-3   0.0     0.0     0.0   
mp2: pija     2     2     2   7.69E-4 8.04E-4 8.27E-4  8.24E-4 8.27E-4 8.29E-4 4.14E-4   0.0     0.0     0.0   
mp2: wija     2     2     2   8.38E-4 8.79E-4 9.06E-4  8.89E-4 9.04E-4 9.10E-4 4.55E-4   0.0     0.0     0.0   
mp2: lai      2     2     2   9.99E-3 1.00E-2 1.01E-2  1.01E-2 1.01E-2 1.01E-2 5.07E-3   0.0     0.0     0.0   
mp2: back     2     2     2   1.21E-2 1.21E-2 1.21E-2  1.21E-2 1.21E-2 1.21E-2 6.06E-3   0.0     0.0     0.0   
mp2: nons     2     2     2   5.44E-2 7.40E-2 0.10     5.44E-2 7.41E-2 0.10    5.14E-2   0.0     0.0     0.0   
mp2: laif     1     1     1   1.29E-2 1.30E-2 1.30E-2  1.30E-2 1.30E-2 1.30E-2 1.30E-2   0.0     0.0     0.0   
mp2: cphf     1     1     1   8.38E-2 0.10    0.11     0.12    0.12    0.12    0.12      0.0     0.0     0.0   
mp2: wijf     1     1     1   1.11E-2 1.11E-2 1.11E-2  1.12E-2 1.12E-2 1.12E-2 1.12E-2   0.0     0.0     0.0   
mp2: sep      1     1     1   6.61E-2 6.62E-2 6.62E-2  6.62E-2 6.62E-2 6.62E-2 6.62E-2   0.0     0.0     0.0   
mp2: tota     1     1     1   0.40    0.42    0.43     0.47    0.47    0.47    0.47      0.0     0.0     0.0   

 The average no. of pstat calls per process was 1.90D+01
 with a timing overhead of 2.79D-06s

  no constraints, skipping    0.0000000000000000     

  Step       Energy      Delta E   Gmax     Grms     Xrms     Xmax   Walltime
  ---- ---------------- -------- -------- -------- -------- -------- --------
@   30     -99.48806696  8.4D-08  0.00048  0.00048  0.00000  0.00001     29.8
                                                       ok       ok  


 ---------------------------------------------------------------
 Failed to converge in maximum number of steps or available time
 ---------------------------------------------------------------


  Step       Energy      Delta E   Gmax     Grms     Xrms     Xmax   Walltime
  ---- ---------------- -------- -------- -------- -------- -------- --------
@   30     -99.48806696  8.4D-08  0.00048  0.00048  0.00000  0.00001     29.8
                                                       ok       ok  



                         Geometry "geometry" -> "geometry"
                         ---------------------------------

 Output coordinates in angstroms (scale by  1.889725989 to convert to a.u.)

  No.       Tag          Charge          X              Y              Z
 ---- ---------------- ---------- -------------- -------------- --------------
    1 F                    9.0000     0.00000000     0.00000000     0.12622207
    2 H                    1.0000     0.00000000     0.00000000    -0.87757631

      Atomic Mass 
      ----------- 

      F                 18.998400
      H                  1.007825


 Effective nuclear repulsion energy (a.u.)       4.7445735504

            Nuclear Dipole moment (a.u.) 
            ----------------------------
        X                 Y               Z
 ---------------- ---------------- ----------------
     0.0000000000     0.0000000000     0.4883472997

      Symmetry information
      --------------------

 Group name             C4v       
 Group number             18
 Group order               8
 No. of unique centers     2

      Symmetry unique atoms

     1    2


                Final and change from initial internal coordinates
                --------------------------------------------------



                                Z-matrix (autoz)
                                -------- 

 Units are Angstrom for bonds and degrees for angles

      Type          Name      I     J     K     L     M      Value       Change
      ----------- --------  ----- ----- ----- ----- ----- ---------- ----------
    1 Stretch                  1     2                       1.00380    0.06461

 ------------------------------------------------------------------------
 mp2 optimize failed                                                                                0
 ------------------------------------------------------------------------
 ------------------------------------------------------------------------
  current input line : 
    33: task mp2 optimize
 ------------------------------------------------------------------------
 ------------------------------------------------------------------------
 This type of error is most commonly associated with calculations not reaching convergence criteria
 ------------------------------------------------------------------------
 For more information see the NWChem manual at https://github.com/nwchemgit/nwchem/wiki


 For further details see manual section:                                                                                                                                                                                                                                                                
