 *******************************************************************************
 **                                                                           **
 **                              MOPAC v23.2.3                                **
 **                                                                           **
 *******************************************************************************
 **          Digital Object Identifier (DOI): 10.5281/zenodo.6511958          **
 **    Visit the DOI location for information on how to cite this program.    **
 *******************************************************************************

                              PM7 CALCULATION RESULTS

 *******************************************************************************
 *  CALCULATION DONE: (MAX THREADS = 18)             Wed Feb 18 17:05:08 2026  *
 *  PM7        - The PM7 Hamiltonian to be used
 *  SINGLET    - SPIN STATE DEFINED AS A SINGLET
 *  PDBOUT     - PRINT GEOMETRY IN PDB FORMAT
 *  RHF        - RESTRICTED HARTREE-FOCK CALCULATION
 *  RESIDUES   - DETERMINE THE SEQUENCE OF RESIDUES
 *  NOOPT      - DO NOT OPTIMIZE ANY COORDINATES
 *
 *
 *
 *                 CHARGE ON SYSTEM = 0
 *
 *
 *
 *  THREADS    - USE UP TO 18 THREADS
 *  T=         - A TIME OF 172800.0 SECONDS REQUESTED
 *  DUMP=N     - RESTART FILE WRITTEN EVERY 7200.0 SECONDS REQUESTED
 *  AUX        - OUTPUT AUXILIARY INFORMATION
 *  LARGE      - EXPANDED OUTPUT TO BE PRINTED
 *******************************************************************************
 AUX LARGE CHARGE=0 SINGLET NOOPT PM7  THREADS=18  PDBOUT RHF
 C40H50N14O26P4 | Single Point | PM7

   ATOM   CHEMICAL          X               Y               Z
  NUMBER   SYMBOL      (ANGSTROMS)     (ANGSTROMS)     (ANGSTROMS)
 
     1       H         -8.89919700      6.73810300      3.21492100   
     2       O         -8.78666300      6.16966700      2.45910900   
     3       P         -8.85474300      4.74159500      2.89565300   
     4       O        -10.28872300      4.38171100      2.93523200   
     5       O         -8.12750600      4.65367800      4.18267600   
     6       O         -8.10389800      3.85818500      1.79964200   
     7       C         -8.39158000      4.09159700      0.39815700   
     8       C         -8.31483600      2.78712900     -0.36495600   
     9       O         -6.91067700      2.49423900     -0.65022100   
    10       C         -8.81807600      1.54431700      0.36647500   
    11       O         -9.21527000      0.51522200     -0.53077900   
    12       C         -7.58995000      1.08893100      1.14259800   
    13       C         -6.46070800      1.44515900      0.18620600   
    14       N         -5.22048400      1.90305100      0.86503700   
    15       C         -5.10614100      2.68093300      1.98943200   
    16       N         -3.87684800      2.91462800      2.33499800   
    17       C         -3.13068200      2.23691300      1.38769000   
    18       C         -1.73910500      2.09359000      1.19769400   
    19       N         -0.82479700      2.63957900      1.99332900   
    20       N         -1.33149000      1.36121500      0.15048500   
    21       C         -2.24529700      0.81457900     -0.64630300   
    22       N         -3.55723500      0.87811300     -0.58156500   
    23       C         -3.93462300      1.61953900      0.47629500   
    24       H         -9.40151000      4.51460000      0.30036700   
    25       H         -7.65706100      4.79826500     -0.01333700   
    26       H         -8.88252800      2.90701000     -1.29452000   
    27       H         -6.22388900      0.55996000     -0.42190500   
    28       H         -7.49347800      1.63024800      2.09547300   
    29       H         -7.62257200      0.00602800      1.33833800   
    30       H         -9.65123000      1.79408300      1.04191800   
    31       H         -5.96473100      3.06490400      2.53946300   
    32       H         -1.11730700      3.20455700      2.80297200   
    33       H          0.17757000      2.49656100      1.80058400   
    34       H         -1.85064900      0.23063400     -1.46943500   
    35       P         -9.24294000     -0.87133200      0.18356400   
    36       O        -10.33797900     -1.61704000     -0.47006600   
    37       O         -9.22528000     -0.90622600      1.66327600   
    38       O         -7.83582700     -1.37545200     -0.37638300   
    39       C         -7.47688100     -1.06559400     -1.74540700   
    40       C         -6.66077500     -2.19746000     -2.32933800   
    41       O         -5.27578300     -2.05302600     -1.88250400   
    42       C         -7.05036700     -3.60864600     -1.89538800   
    43       O         -6.64484000     -4.59411100     -2.83784300   
    44       C         -6.26753200     -3.79464300     -0.60459500   
    45       C         -4.98613900     -3.02799000     -0.89892200   
    46       N         -4.41879900     -2.32699900      0.28418300   
    47       C         -3.04707600     -2.30626300      0.40968700   
    48       O         -2.30373400     -2.83146700     -0.39987700   
    49       N         -2.56646300     -1.64326200      1.52268300   
    50       C         -3.31483000     -1.02250200      2.49233700   
    51       O         -2.76960600     -0.45876900      3.44979800   
    52       C         -4.74041400     -1.09852100      2.28255500   
    53       C         -5.59618300     -0.42719800      3.31331000   
    54       C         -5.24549700     -1.73153500      1.20366200   
    55       H         -8.39317400     -0.92997500     -2.34010000   
    56       H         -6.88478100     -0.13979800     -1.76860500   
    57       H         -6.72482400     -2.13062400     -3.42136900   
    58       H         -4.23445300     -3.73300200     -1.28221200   
    59       H         -6.80285300     -3.36354100      0.25537500   
    60       H         -6.06209600     -4.85864000     -0.41231100   
    61       H         -8.13599000     -3.68265000     -1.72276600   
    62       H         -6.32485300     -1.77024700      1.06176700   
    63       H         -6.00286500     -1.18257600      4.00294900   
    64       H         -6.42202700      0.10009200      2.81637900   
    65       H         -4.98814800      0.29417100      3.88091600   
    66       H         -1.57351200     -1.61357400      1.63297800   
    67       H         -5.71367000     -4.47901400     -3.03819300   
    68       H          8.34458900     -1.58691000      7.56172600   
    69       O          8.09458900     -1.96728000      6.73015800   
    70       P          8.13962800     -0.91508400      5.66823700   
    71       O          9.56007600     -0.75985600      5.28936200   
    72       O          7.48126100      0.28668200      6.22855200   
    73       O          7.30108500     -1.44570600      4.41909500   
    74       C          7.51890800     -2.80295000      3.95674000   
    75       C          7.35604600     -2.86541800      2.45300300   
    76       O          5.92944900     -2.93356100      2.13950600   
    77       C          7.85754800     -1.65106900      1.67436200   
    78       O          8.17061400     -1.98022100      0.31896300   
    79       C          6.66067500     -0.71603100      1.69351400   
    80       C          5.49243200     -1.68931300      1.62663800   
    81       N          4.30666400     -1.26041600      2.41861500   
    82       C          4.28079700     -0.62834300      3.63246200   
    83       N          3.08035900     -0.39157100      4.06720800   
    84       C          2.26111900     -0.88676700      3.06930600   
    85       C          0.85818600     -0.94169700      2.93036300   
    86       N          0.00699000     -0.46364700      3.83314300   
    87       N          0.36910400     -1.51163400      1.81780700   
    88       C          1.21898200     -1.99002700      0.91464800   
    89       N          2.53381800     -2.00612200      0.92859300   
    90       C          2.99329200     -1.43068100      2.05468000   
    91       H          8.53569900     -3.12194700      4.22891300   
    92       H          6.78478000     -3.46993300      4.43630600   
    93       H          7.87568200     -3.76236500      2.09574000   
    94       H          5.19295800     -1.80595600      0.57523300   
    95       H          6.63289700     -0.12458000      2.62150200   
    96       H          6.66684900     -0.03887500      0.82698600   
    97       H          8.73445400     -1.20366800      2.15703900   
    98       H          5.18022900     -0.35130800      4.18067600   
    99       H          0.36275400     -0.02293200      4.69325200   
   100       H         -1.00859700     -0.53463700      3.67290100   
   101       H          0.76007100     -2.43246300      0.03757900   
   102       P          8.19127400     -0.70131100     -0.57385600   
   103       O          9.22482200     -0.96638000     -1.59676500   
   104       O          8.25477700      0.62297800      0.08470100   
   105       O          6.74014100     -0.91319800     -1.20145600   
   106       C          6.31527500     -2.25677500     -1.54657600   
   107       C          5.43168200     -2.21700100     -2.77390300   
   108       O          4.07885300     -1.84303300     -2.36097500   
   109       C          5.79726700     -1.18631900     -3.83885500   
   110       O          5.30832400     -1.54568900     -5.12679100   
   111       C          5.08122200      0.06707900     -3.35946200   
   112       C          3.81133100     -0.50867400     -2.74848100   
   113       N          3.33429800      0.22760900     -1.54805400   
   114       C          1.97237800      0.37437800     -1.39566900   
   115       O          1.16917800     -0.07031200     -2.19470500   
   116       N          1.57685500      1.06326100     -0.26676400   
   117       C          2.39680600      1.60607500      0.69344300   
   118       O          1.92580200      2.20660500      1.66660100   
   119       C          3.80498500      1.40873800      0.44993200   
   120       C          4.73829400      1.97723600      1.47531100   
   121       C          4.22988000      0.73471700     -0.63900600   
   122       H          7.20157600     -2.87648100     -1.75279100   
   123       H          5.75480600     -2.69085800     -0.70609500   
   124       H          5.43685700     -3.21583500     -3.22547300   
   125       H          3.01803200     -0.49385200     -3.50808800   
   126       H          5.67679100      0.60665400     -2.60763400   
   127       H          4.85086600      0.73973300     -4.19873900   
   128       H          6.88751100     -1.03612500     -3.88315100   
   129       H          5.29798000      0.59066600     -0.79828200   
   130       H          5.15768800      2.92528800      1.10705800   
   131       H          5.55406900      1.26360200      1.66492400   
   132       H          4.18776800      2.16047300      2.40972500   
   133       H          0.59280700      1.17896000     -0.13396900   
   134       H          5.79736600     -1.06826200     -5.80064500   
 


          CARTESIAN COORDINATES 

    NO.       ATOM           X           Y           Z

     1         H         -8.8992      6.7381      3.2149
     2         O         -8.7867      6.1697      2.4591
     3         P         -8.8547      4.7416      2.8957
     4         O        -10.2887      4.3817      2.9352
     5         O         -8.1275      4.6537      4.1827
     6         O         -8.1039      3.8582      1.7996
     7         C         -8.3916      4.0916      0.3982
     8         C         -8.3148      2.7871     -0.3650
     9         O         -6.9107      2.4942     -0.6502
    10         C         -8.8181      1.5443      0.3665
    11         O         -9.2153      0.5152     -0.5308
    12         C         -7.5899      1.0889      1.1426
    13         C         -6.4607      1.4452      0.1862
    14         N         -5.2205      1.9031      0.8650
    15         C         -5.1061      2.6809      1.9894
    16         N         -3.8768      2.9146      2.3350
    17         C         -3.1307      2.2369      1.3877
    18         C         -1.7391      2.0936      1.1977
    19         N         -0.8248      2.6396      1.9933
    20         N         -1.3315      1.3612      0.1505
    21         C         -2.2453      0.8146     -0.6463
    22         N         -3.5572      0.8781     -0.5816
    23         C         -3.9346      1.6195      0.4763
    24         H         -9.4015      4.5146      0.3004
    25         H         -7.6571      4.7983     -0.0133
    26         H         -8.8825      2.9070     -1.2945
    27         H         -6.2239      0.5600     -0.4219
    28         H         -7.4935      1.6302      2.0955
    29         H         -7.6226      0.0060      1.3383
    30         H         -9.6512      1.7941      1.0419
    31         H         -5.9647      3.0649      2.5395
    32         H         -1.1173      3.2046      2.8030
    33         H          0.1776      2.4966      1.8006
    34         H         -1.8506      0.2306     -1.4694
    35         P         -9.2429     -0.8713      0.1836
    36         O        -10.3380     -1.6170     -0.4701
    37         O         -9.2253     -0.9062      1.6633
    38         O         -7.8358     -1.3755     -0.3764
    39         C         -7.4769     -1.0656     -1.7454
    40         C         -6.6608     -2.1975     -2.3293
    41         O         -5.2758     -2.0530     -1.8825
    42         C         -7.0504     -3.6086     -1.8954
    43         O         -6.6448     -4.5941     -2.8378
    44         C         -6.2675     -3.7946     -0.6046
    45         C         -4.9861     -3.0280     -0.8989
    46         N         -4.4188     -2.3270      0.2842
    47         C         -3.0471     -2.3063      0.4097
    48         O         -2.3037     -2.8315     -0.3999
    49         N         -2.5665     -1.6433      1.5227
    50         C         -3.3148     -1.0225      2.4923
    51         O         -2.7696     -0.4588      3.4498
    52         C         -4.7404     -1.0985      2.2826
    53         C         -5.5962     -0.4272      3.3133
    54         C         -5.2455     -1.7315      1.2037
    55         H         -8.3932     -0.9300     -2.3401
    56         H         -6.8848     -0.1398     -1.7686
    57         H         -6.7248     -2.1306     -3.4214
    58         H         -4.2345     -3.7330     -1.2822
    59         H         -6.8029     -3.3635      0.2554
    60         H         -6.0621     -4.8586     -0.4123
    61         H         -8.1360     -3.6827     -1.7228
    62         H         -6.3249     -1.7702      1.0618
    63         H         -6.0029     -1.1826      4.0029
    64         H         -6.4220      0.1001      2.8164
    65         H         -4.9881      0.2942      3.8809
    66         H         -1.5735     -1.6136      1.6330
    67         H         -5.7137     -4.4790     -3.0382
    68         H          8.3446     -1.5869      7.5617
    69         O          8.0946     -1.9673      6.7302
    70         P          8.1396     -0.9151      5.6682
    71         O          9.5601     -0.7599      5.2894
    72         O          7.4813      0.2867      6.2286
    73         O          7.3011     -1.4457      4.4191
    74         C          7.5189     -2.8030      3.9567
    75         C          7.3560     -2.8654      2.4530
    76         O          5.9294     -2.9336      2.1395
    77         C          7.8575     -1.6511      1.6744
    78         O          8.1706     -1.9802      0.3190
    79         C          6.6607     -0.7160      1.6935
    80         C          5.4924     -1.6893      1.6266
    81         N          4.3067     -1.2604      2.4186
    82         C          4.2808     -0.6283      3.6325
    83         N          3.0804     -0.3916      4.0672
    84         C          2.2611     -0.8868      3.0693
    85         C          0.8582     -0.9417      2.9304
    86         N          0.0070     -0.4636      3.8331
    87         N          0.3691     -1.5116      1.8178
    88         C          1.2190     -1.9900      0.9146
    89         N          2.5338     -2.0061      0.9286
    90         C          2.9933     -1.4307      2.0547
    91         H          8.5357     -3.1219      4.2289
    92         H          6.7848     -3.4699      4.4363
    93         H          7.8757     -3.7624      2.0957
    94         H          5.1930     -1.8060      0.5752
    95         H          6.6329     -0.1246      2.6215
    96         H          6.6668     -0.0389      0.8270
    97         H          8.7345     -1.2037      2.1570
    98         H          5.1802     -0.3513      4.1807
    99         H          0.3628     -0.0229      4.6933
   100         H         -1.0086     -0.5346      3.6729
   101         H          0.7601     -2.4325      0.0376
   102         P          8.1913     -0.7013     -0.5739
   103         O          9.2248     -0.9664     -1.5968
   104         O          8.2548      0.6230      0.0847
   105         O          6.7401     -0.9132     -1.2015
   106         C          6.3153     -2.2568     -1.5466
   107         C          5.4317     -2.2170     -2.7739
   108         O          4.0789     -1.8430     -2.3610
   109         C          5.7973     -1.1863     -3.8389
   110         O          5.3083     -1.5457     -5.1268
   111         C          5.0812      0.0671     -3.3595
   112         C          3.8113     -0.5087     -2.7485
   113         N          3.3343      0.2276     -1.5481
   114         C          1.9724      0.3744     -1.3957
   115         O          1.1692     -0.0703     -2.1947
   116         N          1.5769      1.0633     -0.2668
   117         C          2.3968      1.6061      0.6934
   118         O          1.9258      2.2066      1.6666
   119         C          3.8050      1.4087      0.4499
   120         C          4.7383      1.9772      1.4753
   121         C          4.2299      0.7347     -0.6390
   122         H          7.2016     -2.8765     -1.7528
   123         H          5.7548     -2.6909     -0.7061
   124         H          5.4369     -3.2158     -3.2255
   125         H          3.0180     -0.4939     -3.5081
   126         H          5.6768      0.6067     -2.6076
   127         H          4.8509      0.7397     -4.1987
   128         H          6.8875     -1.0361     -3.8832
   129         H          5.2980      0.5907     -0.7983
   130         H          5.1577      2.9253      1.1071
   131         H          5.5541      1.2636      1.6649
   132         H          4.1878      2.1605      2.4097
   133         H          0.5928      1.1790     -0.1340
   134         H          5.7974     -1.0683     -5.8006

 General Reference for PM7:
 "Optimization of Parameters for Semiempirical Methods VI: More Modifications to the 
 NDDO Approximations and Re-optimization of Parameters", J. J. P. Stewart, J. Mol. Mod., 1:32, 19 (2013)
 https://link.springer.com/article/10.1007/s00894-012-1667-x

           Empirical Formula: C40 H50 N14 O26 P4  =   134 atoms



      MOLECULAR POINT GROUP   :   C1  


 SINGLET STATE CALCULATION


      RHF CALCULATION, NO. OF DOUBLY OCCUPIED LEVELS = 228



 ALL CONVERGERS ARE NOW FORCED ON
 SHIFT=10, PULAY ON, CAMP-KING ON
 AND ITERATION COUNTER RESET



 -------------------------------------------------------------------------------
 AUX LARGE CHARGE=0 SINGLET NOOPT PM7  THREADS=18  PDBOUT RHF
 C40H50N14O26P4 | Single Point | PM7



     NO PARAMETERS MARKED FOR OPTIMIZATION, SO 1SCF WAS USED  
     SCF FIELD WAS ACHIEVED                                   


                              PM7 CALCULATION
                                                       MOPAC v23.2.3 Linux
                                                       Wed Feb 18 17:05:20 2026




          FINAL HEAT OF FORMATION =       -807.07238 KCAL/MOL =   -3376.79082 KJ/MOL


          COSMO AREA              =        801.48 SQUARE ANGSTROMS
          COSMO VOLUME            =       1243.64 CUBIC ANGSTROMS

          IONIZATION POTENTIAL    =          8.469284 EV
          HOMO LUMO ENERGIES (EV) =         -8.469 -6.461
          NO. OF FILLED LEVELS    =        228
          MOLECULAR WEIGHT        =       1266.8082         POINT GROUP:  C1  

          MOLECULAR DIMENSIONS (Angstroms)

            Atom       Atom       Distance
            O   103    O     4    20.73450
            H    68    O    43    14.81879
            H     1    H    60     8.19628


          SCF CALCULATIONS        =          1
 
          WALL-CLOCK TIME         =     12.000 SECONDS
          COMPUTATION TIME        =          1 MINUTE AND 59.620 SECONDS




   ATOM                 CHEMICAL                   X               Y               Z
  NUMBER                 SYMBOL               (ANGSTROMS)     (ANGSTROMS)     (ANGSTROMS)
 
     1       H(HETATM    1  H1  HET A   1)   -8.89919700      6.73810300      3.21492100   
     2       O(HETATM    2  O1  HET A   1)   -8.78666300      6.16966700      2.45910900   
     3       P(HETATM    3  P1  HET A   1)   -8.85474300      4.74159500      2.89565300   
     4       O(HETATM    4  O2  HET A   1)  -10.28872300      4.38171100      2.93523200   
     5       O(HETATM    5  O3  HET A   1)   -8.12750600      4.65367800      4.18267600   
     6       O(HETATM    6  O4  HET A   1)   -8.10389800      3.85818500      1.79964200   
     7       C(HETATM    7  C1  HET A   1)   -8.39158000      4.09159700      0.39815700   
     8       C(HETATM    8  C2  HET A   1)   -8.31483600      2.78712900     -0.36495600   
     9       O(HETATM    9  O5  HET A   1)   -6.91067700      2.49423900     -0.65022100   
    10       C(HETATM   10  C3  HET A   1)   -8.81807600      1.54431700      0.36647500   
    11       O(HETATM   11  O6  HET A   1)   -9.21527000      0.51522200     -0.53077900   
    12       C(HETATM   12  C4  HET A   1)   -7.58995000      1.08893100      1.14259800   
    13       C(HETATM   13  C5  HET A   1)   -6.46070800      1.44515900      0.18620600   
    14       N(HETATM   14  N1  HET A   1)   -5.22048400      1.90305100      0.86503700   
    15       C(HETATM   15  C6  HET A   1)   -5.10614100      2.68093300      1.98943200   
    16       N(HETATM   16  N2  HET A   1)   -3.87684800      2.91462800      2.33499800   
    17       C(HETATM   17  C7  HET A   1)   -3.13068200      2.23691300      1.38769000   
    18       C(HETATM   18  C8  HET A   1)   -1.73910500      2.09359000      1.19769400   
    19       N(HETATM   19  N3  HET A   1)   -0.82479700      2.63957900      1.99332900   
    20       N(HETATM   20  N4  HET A   1)   -1.33149000      1.36121500      0.15048500   
    21       C(HETATM   21  C9  HET A   1)   -2.24529700      0.81457900     -0.64630300   
    22       N(HETATM   22  N5  HET A   1)   -3.55723500      0.87811300     -0.58156500   
    23       C(HETATM   23  C10 HET A   1)   -3.93462300      1.61953900      0.47629500   
    24       H(HETATM   24 1H1  HET A   1)   -9.40151000      4.51460000      0.30036700   
    25       H(HETATM   25 2H1  HET A   1)   -7.65706100      4.79826500     -0.01333700   
    26       H(HETATM   26  H2  HET A   1)   -8.88252800      2.90701000     -1.29452000   
    27       H(HETATM   27  H5  HET A   1)   -6.22388900      0.55996000     -0.42190500   
    28       H(HETATM   28 1H4  HET A   1)   -7.49347800      1.63024800      2.09547300   
    29       H(HETATM   29 2H4  HET A   1)   -7.62257200      0.00602800      1.33833800   
    30       H(HETATM   30  H3  HET A   1)   -9.65123000      1.79408300      1.04191800   
    31       H(HETATM   31  H6  HET A   1)   -5.96473100      3.06490400      2.53946300   
    32       H(HETATM   32 1H3  HET A   1)   -1.11730700      3.20455700      2.80297200   
    33       H(HETATM   33 2H3  HET A   1)    0.17757000      2.49656100      1.80058400   
    34       H(HETATM   34  H9  HET A   1)   -1.85064900      0.23063400     -1.46943500   
    35       P(HETATM   35  P2  HET A   1)   -9.24294000     -0.87133200      0.18356400   
    36       O(HETATM   36  O7  HET A   1)  -10.33797900     -1.61704000     -0.47006600   
    37       O(HETATM   37  O8  HET A   1)   -9.22528000     -0.90622600      1.66327600   
    38       O(HETATM   38  O9  HET A   1)   -7.83582700     -1.37545200     -0.37638300   
    39       C(HETATM   39  C11 HET A   1)   -7.47688100     -1.06559400     -1.74540700   
    40       C(HETATM   40  C12 HET A   1)   -6.66077500     -2.19746000     -2.32933800   
    41       O(HETATM   41  O10 HET A   1)   -5.27578300     -2.05302600     -1.88250400   
    42       C(HETATM   42  C13 HET A   1)   -7.05036700     -3.60864600     -1.89538800   
    43       O(HETATM   43  O11 HET A   1)   -6.64484000     -4.59411100     -2.83784300   
    44       C(HETATM   44  C14 HET A   1)   -6.26753200     -3.79464300     -0.60459500   
    45       C(HETATM   45  C15 HET A   1)   -4.98613900     -3.02799000     -0.89892200   
    46       N(HETATM   46  N6  HET A   1)   -4.41879900     -2.32699900      0.28418300   
    47       C(HETATM   47  C16 HET A   1)   -3.04707600     -2.30626300      0.40968700   
    48       O(HETATM   48  O12 HET A   1)   -2.30373400     -2.83146700     -0.39987700   
    49       N(HETATM   49  N7  HET A   1)   -2.56646300     -1.64326200      1.52268300   
    50       C(HETATM   50  C17 HET A   1)   -3.31483000     -1.02250200      2.49233700   
    51       O(HETATM   51  O13 HET A   1)   -2.76960600     -0.45876900      3.44979800   
    52       C(HETATM   52  C18 HET A   1)   -4.74041400     -1.09852100      2.28255500   
    53       C(HETATM   53  C19 HET A   1)   -5.59618300     -0.42719800      3.31331000   
    54       C(HETATM   54  C20 HET A   1)   -5.24549700     -1.73153500      1.20366200   
    55       H(HETATM   55 1H11 HET A   1)   -8.39317400     -0.92997500     -2.34010000   
    56       H(HETATM   56 2H11 HET A   1)   -6.88478100     -0.13979800     -1.76860500   
    57       H(HETATM   57  H12 HET A   1)   -6.72482400     -2.13062400     -3.42136900   
    58       H(HETATM   58  H15 HET A   1)   -4.23445300     -3.73300200     -1.28221200   
    59       H(HETATM   59 1H14 HET A   1)   -6.80285300     -3.36354100      0.25537500   
    60       H(HETATM   60 2H14 HET A   1)   -6.06209600     -4.85864000     -0.41231100   
    61       H(HETATM   61  H13 HET A   1)   -8.13599000     -3.68265000     -1.72276600   
    62       H(HETATM   62  H20 HET A   1)   -6.32485300     -1.77024700      1.06176700   
    63       H(HETATM   63 1H19 HET A   1)   -6.00286500     -1.18257600      4.00294900   
    64       H(HETATM   64 2H19 HET A   1)   -6.42202700      0.10009200      2.81637900   
    65       H(HETATM   65 3H19 HET A   1)   -4.98814800      0.29417100      3.88091600   
    66       H(HETATM   66  H7  HET A   1)   -1.57351200     -1.61357400      1.63297800   
    67       H(HETATM   67  H11 HET A   1)   -5.71367000     -4.47901400     -3.03819300   
    68       H(HETATM   68  H1  HET B   2)    8.34458900     -1.58691000      7.56172600   
    69       O(HETATM   69  O1  HET B   2)    8.09458900     -1.96728000      6.73015800   
    70       P(HETATM   70  P1  HET B   2)    8.13962800     -0.91508400      5.66823700   
    71       O(HETATM   71  O2  HET B   2)    9.56007600     -0.75985600      5.28936200   
    72       O(HETATM   72  O3  HET B   2)    7.48126100      0.28668200      6.22855200   
    73       O(HETATM   73  O4  HET B   2)    7.30108500     -1.44570600      4.41909500   
    74       C(HETATM   74  C1  HET B   2)    7.51890800     -2.80295000      3.95674000   
    75       C(HETATM   75  C2  HET B   2)    7.35604600     -2.86541800      2.45300300   
    76       O(HETATM   76  O5  HET B   2)    5.92944900     -2.93356100      2.13950600   
    77       C(HETATM   77  C3  HET B   2)    7.85754800     -1.65106900      1.67436200   
    78       O(HETATM   78  O6  HET B   2)    8.17061400     -1.98022100      0.31896300   
    79       C(HETATM   79  C4  HET B   2)    6.66067500     -0.71603100      1.69351400   
    80       C(HETATM   80  C5  HET B   2)    5.49243200     -1.68931300      1.62663800   
    81       N(HETATM   81  N1  HET B   2)    4.30666400     -1.26041600      2.41861500   
    82       C(HETATM   82  C6  HET B   2)    4.28079700     -0.62834300      3.63246200   
    83       N(HETATM   83  N2  HET B   2)    3.08035900     -0.39157100      4.06720800   
    84       C(HETATM   84  C7  HET B   2)    2.26111900     -0.88676700      3.06930600   
    85       C(HETATM   85  C8  HET B   2)    0.85818600     -0.94169700      2.93036300   
    86       N(HETATM   86  N3  HET B   2)    0.00699000     -0.46364700      3.83314300   
    87       N(HETATM   87  N4  HET B   2)    0.36910400     -1.51163400      1.81780700   
    88       C(HETATM   88  C9  HET B   2)    1.21898200     -1.99002700      0.91464800   
    89       N(HETATM   89  N5  HET B   2)    2.53381800     -2.00612200      0.92859300   
    90       C(HETATM   90  C10 HET B   2)    2.99329200     -1.43068100      2.05468000   
    91       H(HETATM   91 1H1  HET B   2)    8.53569900     -3.12194700      4.22891300   
    92       H(HETATM   92 2H1  HET B   2)    6.78478000     -3.46993300      4.43630600   
    93       H(HETATM   93  H2  HET B   2)    7.87568200     -3.76236500      2.09574000   
    94       H(HETATM   94  H5  HET B   2)    5.19295800     -1.80595600      0.57523300   
    95       H(HETATM   95 1H4  HET B   2)    6.63289700     -0.12458000      2.62150200   
    96       H(HETATM   96 2H4  HET B   2)    6.66684900     -0.03887500      0.82698600   
    97       H(HETATM   97  H3  HET B   2)    8.73445400     -1.20366800      2.15703900   
    98       H(HETATM   98  H6  HET B   2)    5.18022900     -0.35130800      4.18067600   
    99       H(HETATM   99 1H3  HET B   2)    0.36275400     -0.02293200      4.69325200   
   100       H(HETATM  100 2H3  HET B   2)   -1.00859700     -0.53463700      3.67290100   
   101       H(HETATM  101  H9  HET B   2)    0.76007100     -2.43246300      0.03757900   
   102       P(HETATM  102  P2  HET B   2)    8.19127400     -0.70131100     -0.57385600   
   103       O(HETATM  103  O7  HET B   2)    9.22482200     -0.96638000     -1.59676500   
   104       O(HETATM  104  O8  HET B   2)    8.25477700      0.62297800      0.08470100   
   105       O(HETATM  105  O9  HET B   2)    6.74014100     -0.91319800     -1.20145600   
   106       C(HETATM  106  C11 HET B   2)    6.31527500     -2.25677500     -1.54657600   
   107       C(HETATM  107  C12 HET B   2)    5.43168200     -2.21700100     -2.77390300   
   108       O(HETATM  108  O10 HET B   2)    4.07885300     -1.84303300     -2.36097500   
   109       C(HETATM  109  C13 HET B   2)    5.79726700     -1.18631900     -3.83885500   
   110       O(HETATM  110  O11 HET B   2)    5.30832400     -1.54568900     -5.12679100   
   111       C(HETATM  111  C14 HET B   2)    5.08122200      0.06707900     -3.35946200   
   112       C(HETATM  112  C15 HET B   2)    3.81133100     -0.50867400     -2.74848100   
   113       N(HETATM  113  N6  HET B   2)    3.33429800      0.22760900     -1.54805400   
   114       C(HETATM  114  C16 HET B   2)    1.97237800      0.37437800     -1.39566900   
   115       O(HETATM  115  O12 HET B   2)    1.16917800     -0.07031200     -2.19470500   
   116       N(HETATM  116  N7  HET B   2)    1.57685500      1.06326100     -0.26676400   
   117       C(HETATM  117  C17 HET B   2)    2.39680600      1.60607500      0.69344300   
   118       O(HETATM  118  O13 HET B   2)    1.92580200      2.20660500      1.66660100   
   119       C(HETATM  119  C18 HET B   2)    3.80498500      1.40873800      0.44993200   
   120       C(HETATM  120  C19 HET B   2)    4.73829400      1.97723600      1.47531100   
   121       C(HETATM  121  C20 HET B   2)    4.22988000      0.73471700     -0.63900600   
   122       H(HETATM  122 1H11 HET B   2)    7.20157600     -2.87648100     -1.75279100   
   123       H(HETATM  123 2H11 HET B   2)    5.75480600     -2.69085800     -0.70609500   
   124       H(HETATM  124  H12 HET B   2)    5.43685700     -3.21583500     -3.22547300   
   125       H(HETATM  125  H15 HET B   2)    3.01803200     -0.49385200     -3.50808800   
   126       H(HETATM  126 1H14 HET B   2)    5.67679100      0.60665400     -2.60763400   
   127       H(HETATM  127 2H14 HET B   2)    4.85086600      0.73973300     -4.19873900   
   128       H(HETATM  128  H13 HET B   2)    6.88751100     -1.03612500     -3.88315100   
   129       H(HETATM  129  H20 HET B   2)    5.29798000      0.59066600     -0.79828200   
   130       H(HETATM  130 1H19 HET B   2)    5.15768800      2.92528800      1.10705800   
   131       H(HETATM  131 2H19 HET B   2)    5.55406900      1.26360200      1.66492400   
   132       H(HETATM  132 3H19 HET B   2)    4.18776800      2.16047300      2.40972500   
   133       H(HETATM  133  H7  HET B   2)    0.59280700      1.17896000     -0.13396900   
   134       H(HETATM  134  H11 HET B   2)    5.79736600     -1.06826200     -5.80064500   

                             CARTESIAN COORDINATES

   1    H       -8.899197000     6.738103000     3.214921000
   2    O       -8.786663000     6.169667000     2.459109000
   3    P       -8.854743000     4.741595000     2.895653000
   4    O      -10.288723000     4.381711000     2.935232000
   5    O       -8.127506000     4.653678000     4.182676000
   6    O       -8.103898000     3.858185000     1.799642000
   7    C       -8.391580000     4.091597000     0.398157000
   8    C       -8.314836000     2.787129000    -0.364956000
   9    O       -6.910677000     2.494239000    -0.650221000
  10    C       -8.818076000     1.544317000     0.366475000
  11    O       -9.215270000     0.515222000    -0.530779000
  12    C       -7.589950000     1.088931000     1.142598000
  13    C       -6.460708000     1.445159000     0.186206000
  14    N       -5.220484000     1.903051000     0.865037000
  15    C       -5.106141000     2.680933000     1.989432000
  16    N       -3.876848000     2.914628000     2.334998000
  17    C       -3.130682000     2.236913000     1.387690000
  18    C       -1.739105000     2.093590000     1.197694000
  19    N       -0.824797000     2.639579000     1.993329000
  20    N       -1.331490000     1.361215000     0.150485000
  21    C       -2.245297000     0.814579000    -0.646303000
  22    N       -3.557235000     0.878113000    -0.581565000
  23    C       -3.934623000     1.619539000     0.476295000
  24    H       -9.401510000     4.514600000     0.300367000
  25    H       -7.657061000     4.798265000    -0.013337000
  26    H       -8.882528000     2.907010000    -1.294520000
  27    H       -6.223889000     0.559960000    -0.421905000
  28    H       -7.493478000     1.630248000     2.095473000
  29    H       -7.622572000     0.006028000     1.338338000
  30    H       -9.651230000     1.794083000     1.041918000
  31    H       -5.964731000     3.064904000     2.539463000
  32    H       -1.117307000     3.204557000     2.802972000
  33    H        0.177570000     2.496561000     1.800584000
  34    H       -1.850649000     0.230634000    -1.469435000
  35    P       -9.242940000    -0.871332000     0.183564000
  36    O      -10.337979000    -1.617040000    -0.470066000
  37    O       -9.225280000    -0.906226000     1.663276000
  38    O       -7.835827000    -1.375452000    -0.376383000
  39    C       -7.476881000    -1.065594000    -1.745407000
  40    C       -6.660775000    -2.197460000    -2.329338000
  41    O       -5.275783000    -2.053026000    -1.882504000
  42    C       -7.050367000    -3.608646000    -1.895388000
  43    O       -6.644840000    -4.594111000    -2.837843000
  44    C       -6.267532000    -3.794643000    -0.604595000
  45    C       -4.986139000    -3.027990000    -0.898922000
  46    N       -4.418799000    -2.326999000     0.284183000
  47    C       -3.047076000    -2.306263000     0.409687000
  48    O       -2.303734000    -2.831467000    -0.399877000
  49    N       -2.566463000    -1.643262000     1.522683000
  50    C       -3.314830000    -1.022502000     2.492337000
  51    O       -2.769606000    -0.458769000     3.449798000
  52    C       -4.740414000    -1.098521000     2.282555000
  53    C       -5.596183000    -0.427198000     3.313310000
  54    C       -5.245497000    -1.731535000     1.203662000
  55    H       -8.393174000    -0.929975000    -2.340100000
  56    H       -6.884781000    -0.139798000    -1.768605000
  57    H       -6.724824000    -2.130624000    -3.421369000
  58    H       -4.234453000    -3.733002000    -1.282212000
  59    H       -6.802853000    -3.363541000     0.255375000
  60    H       -6.062096000    -4.858640000    -0.412311000
  61    H       -8.135990000    -3.682650000    -1.722766000
  62    H       -6.324853000    -1.770247000     1.061767000
  63    H       -6.002865000    -1.182576000     4.002949000
  64    H       -6.422027000     0.100092000     2.816379000
  65    H       -4.988148000     0.294171000     3.880916000
  66    H       -1.573512000    -1.613574000     1.632978000
  67    H       -5.713670000    -4.479014000    -3.038193000
  68    H        8.344589000    -1.586910000     7.561726000
  69    O        8.094589000    -1.967280000     6.730158000
  70    P        8.139628000    -0.915084000     5.668237000
  71    O        9.560076000    -0.759856000     5.289362000
  72    O        7.481261000     0.286682000     6.228552000
  73    O        7.301085000    -1.445706000     4.419095000
  74    C        7.518908000    -2.802950000     3.956740000
  75    C        7.356046000    -2.865418000     2.453003000
  76    O        5.929449000    -2.933561000     2.139506000
  77    C        7.857548000    -1.651069000     1.674362000
  78    O        8.170614000    -1.980221000     0.318963000
  79    C        6.660675000    -0.716031000     1.693514000
  80    C        5.492432000    -1.689313000     1.626638000
  81    N        4.306664000    -1.260416000     2.418615000
  82    C        4.280797000    -0.628343000     3.632462000
  83    N        3.080359000    -0.391571000     4.067208000
  84    C        2.261119000    -0.886767000     3.069306000
  85    C        0.858186000    -0.941697000     2.930363000
  86    N        0.006990000    -0.463647000     3.833143000
  87    N        0.369104000    -1.511634000     1.817807000
  88    C        1.218982000    -1.990027000     0.914648000
  89    N        2.533818000    -2.006122000     0.928593000
  90    C        2.993292000    -1.430681000     2.054680000
  91    H        8.535699000    -3.121947000     4.228913000
  92    H        6.784780000    -3.469933000     4.436306000
  93    H        7.875682000    -3.762365000     2.095740000
  94    H        5.192958000    -1.805956000     0.575233000
  95    H        6.632897000    -0.124580000     2.621502000
  96    H        6.666849000    -0.038875000     0.826986000
  97    H        8.734454000    -1.203668000     2.157039000
  98    H        5.180229000    -0.351308000     4.180676000
  99    H        0.362754000    -0.022932000     4.693252000
 100    H       -1.008597000    -0.534637000     3.672901000
 101    H        0.760071000    -2.432463000     0.037579000
 102    P        8.191274000    -0.701311000    -0.573856000
 103    O        9.224822000    -0.966380000    -1.596765000
 104    O        8.254777000     0.622978000     0.084701000
 105    O        6.740141000    -0.913198000    -1.201456000
 106    C        6.315275000    -2.256775000    -1.546576000
 107    C        5.431682000    -2.217001000    -2.773903000
 108    O        4.078853000    -1.843033000    -2.360975000
 109    C        5.797267000    -1.186319000    -3.838855000
 110    O        5.308324000    -1.545689000    -5.126791000
 111    C        5.081222000     0.067079000    -3.359462000
 112    C        3.811331000    -0.508674000    -2.748481000
 113    N        3.334298000     0.227609000    -1.548054000
 114    C        1.972378000     0.374378000    -1.395669000
 115    O        1.169178000    -0.070312000    -2.194705000
 116    N        1.576855000     1.063261000    -0.266764000
 117    C        2.396806000     1.606075000     0.693443000
 118    O        1.925802000     2.206605000     1.666601000
 119    C        3.804985000     1.408738000     0.449932000
 120    C        4.738294000     1.977236000     1.475311000
 121    C        4.229880000     0.734717000    -0.639006000
 122    H        7.201576000    -2.876481000    -1.752791000
 123    H        5.754806000    -2.690858000    -0.706095000
 124    H        5.436857000    -3.215835000    -3.225473000
 125    H        3.018032000    -0.493852000    -3.508088000
 126    H        5.676791000     0.606654000    -2.607634000
 127    H        4.850866000     0.739733000    -4.198739000
 128    H        6.887511000    -1.036125000    -3.883151000
 129    H        5.297980000     0.590666000    -0.798282000
 130    H        5.157688000     2.925288000     1.107058000
 131    H        5.554069000     1.263602000     1.664924000
 132    H        4.187768000     2.160473000     2.409725000
 133    H        0.592807000     1.178960000    -0.133969000
 134    H        5.797366000    -1.068262000    -5.800645000


           Empirical Formula: C40 H50 N14 O26 P4  =   134 atoms



      MOLECULAR POINT GROUP   :   C1  


                  EIGENVALUES  
 -47.36212 -47.26919 -46.81239 -46.76885 -39.53860 -39.50607 -38.89216 -38.83078
 -38.16320 -38.10151 -36.76566 -36.69911 -36.37892 -36.33257 -34.31666 -34.27466
 -33.67087 -33.61280 -32.82995 -32.78442 -31.94410 -31.89615 -31.78285 -31.74087
 -31.05817 -30.95706 -30.75025 -30.73279 -30.72339 -30.66880 -30.28222 -30.18577
 -30.15317 -30.14957 -29.93117 -29.90119 -29.60693 -29.60422 -29.25934 -29.03321
 -28.31263 -28.30653 -27.48452 -27.44916 -27.34414 -27.27945 -26.95268 -26.89378
 -26.83760 -26.78075 -26.53662 -26.50512 -24.66426 -24.58011 -24.52265 -24.48131
 -24.29187 -24.27928 -24.08934 -24.02446 -23.47823 -23.42793 -23.34211 -23.28167
 -23.08488 -23.04244 -22.95748 -22.89916 -22.11367 -22.08035 -21.97500 -21.95755
 -20.93747 -20.92743 -20.63357 -20.61380 -20.48550 -20.37544 -20.35351 -20.17910
 -19.42392 -19.40570 -19.14004 -18.97327 -18.93099 -18.67322 -18.53570 -18.41977
 -18.36622 -18.28497 -18.13759 -18.05049 -17.92319 -17.90223 -17.72215 -17.64517
 -17.56203 -17.51871 -17.27550 -17.20101 -17.11322 -17.05980 -16.92248 -16.87511
 -16.82711 -16.74202 -16.54816 -16.48386 -16.42294 -16.40647 -16.31923 -16.21347
 -16.18203 -16.14038 -16.10577 -15.98724 -15.94236 -15.87322 -15.85772 -15.57619
 -15.46733 -15.36903 -15.27532 -15.26156 -15.21876 -15.14925 -15.05777 -15.00467
 -14.91400 -14.71184 -14.69829 -14.68609 -14.61722 -14.58426 -14.54207 -14.53149
 -14.47859 -14.35648 -14.33986 -14.33452 -14.26916 -14.20291 -14.19022 -14.16696
 -14.11463 -14.09423 -13.99035 -13.93439 -13.74009 -13.73021 -13.71094 -13.66012
 -13.64276 -13.60559 -13.40150 -13.35590 -13.25601 -13.21960 -13.11763 -13.07062
 -13.03066 -13.01942 -12.85030 -12.81214 -12.76979 -12.76385 -12.71929 -12.71044
 -12.55321 -12.54804 -12.49032 -12.43841 -12.36305 -12.33718 -12.29944 -12.28472
 -12.19867 -12.19014 -12.11209 -12.08296 -12.06124 -12.01822 -12.00926 -11.77949
 -11.58420 -11.56021 -11.42690 -11.40661 -11.32902 -11.32031 -11.23132 -11.21058
 -11.14950 -11.12089 -11.09398 -11.04741 -11.03193 -11.00894 -11.00266 -10.95998
 -10.78138 -10.72440 -10.62566 -10.60240 -10.55573 -10.54219 -10.51687 -10.50789
 -10.42621 -10.42164 -10.35815 -10.34945 -10.32580 -10.30704 -10.26310 -10.22566
 -10.13766 -10.07648 -10.04221 -10.01266  -9.97226  -9.91591  -9.09017  -9.04442
  -8.75631  -8.69770  -8.48580  -8.46928  -6.46086  -6.41993  -0.31523  -0.17762
  -0.00452   0.01827   0.11828   0.13176   0.17245   0.18058   0.40169   0.41023
   0.46912   0.47075   0.68534   0.76006   0.84730   0.90534   1.06262   1.14608
   1.17976   1.18648   1.44331   1.45743   1.52660   1.56381   1.76990   1.77887
   1.80388   1.82909   1.88635   1.88807   1.90370   1.92703   2.08019   2.09572
   2.11511   2.13095   2.39904   2.49561   2.51638   2.54797   2.59401   2.65708
   2.71449   2.74019   2.78741   2.79042   2.93481   2.99314   3.00309   3.02537
   3.14281   3.18317   3.23342   3.28184   3.33103   3.37715   3.41996   3.44996
   3.49925   3.53976   3.57504   3.64581   3.70905   3.73997   3.75975   3.77338
   3.80174   3.84850   3.95655   3.97658   3.99259   4.02650   4.03889   4.10324
   4.15652   4.16308   4.18505   4.21589   4.23002   4.25552   4.32586   4.36826
   4.40800   4.44276   4.55373   4.56080   4.57819   4.60060   4.72595   4.76546
   4.77155   4.79441   4.91318   4.96846   4.97556   5.00083   5.02703   5.05817
   5.10503   5.15127   5.19507   5.21364   5.23378   5.24003   5.26519   5.29148
   5.31345   5.32982   5.33329   5.35221   5.36279   5.38894   5.43743   5.45365
   5.49424   5.50052   5.50366   5.55457   5.58726   5.60822   5.63466   5.65652
   5.68261   5.68715   5.70844   5.72159   5.72984   5.73257   5.74826   5.81967
   5.84351   5.86496   5.87974   5.99801   6.01379   6.02007   6.03225   6.05915
   6.10276   6.12787   6.14299   6.17045   6.18614   6.18711   6.19891   6.22032
   6.23534   6.28205   6.32095   6.38271   7.05900   7.06100   7.09350   7.10507
   7.39113   7.42665 104.09145 104.22946 104.24227 104.42357 104.44907 104.62418
 104.72631 104.86182 105.00981 105.13987 105.49872 105.53014 105.87213 105.90829
 105.94872 105.96844 106.39309 106.43993 106.58275 106.62714


              NET ATOMIC CHARGES AND DIPOLE CONTRIBUTIONS

  ATOM NO.                 TYPE                        CHARGE      No. of ELECS.   s-Pop       p-Pop       d-Pop       
    1          H(HETATM    1  H1  HET A   1)           0.345142        0.6549     0.65486
    2          O(HETATM    2  O1  HET A   1)          -0.428997        6.4290     1.76372     4.66528
    3          P(HETATM    3  P1  HET A   1)           0.402314        4.5977     1.62091     2.79965     0.17713
    4          O(HETATM    4  O2  HET A   1)          -0.154250        6.1543     1.88937     4.26488
    5          O(HETATM    5  O3  HET A   1)          -0.146895        6.1469     1.88981     4.25709
    6          O(HETATM    6  O4  HET A   1)          -0.268060        6.2681     1.84492     4.42314
    7          C(HETATM    7  C1  HET A   1)          -0.055215        4.0552     1.08254     2.97268
    8          C(HETATM    8  C2  HET A   1)           0.037550        3.9625     1.10055     2.86190
    9          O(HETATM    9  O5  HET A   1)          -0.387544        6.3875     1.89326     4.49428
   10          C(HETATM   10  C3  HET A   1)           0.109849        3.8902     1.07329     2.81687
   11          O(HETATM   11  O6  HET A   1)          -0.324138        6.3241     1.83399     4.49015
   12          C(HETATM   12  C4  HET A   1)          -0.368300        4.3683     1.08378     3.28452
   13          C(HETATM   13  C5  HET A   1)           0.301108        3.6989     1.09616     2.60273
   14          N(HETATM   14  N1  HET A   1)          -0.347115        5.3471     1.55250     3.79462
   15          C(HETATM   15  C6  HET A   1)           0.120342        3.8797     1.08907     2.79059
   16          N(HETATM   16  N2  HET A   1)          -0.326396        5.3264     1.75192     3.57447
   17          C(HETATM   17  C7  HET A   1)          -0.203505        4.2035     1.03581     3.16769
   18          C(HETATM   18  C8  HET A   1)           0.471499        3.5285     1.02899     2.49951
   19          N(HETATM   19  N3  HET A   1)          -0.515630        5.5156     1.52304     3.99259
   20          N(HETATM   20  N4  HET A   1)          -0.591774        5.5918     1.73623     3.85555
   21          C(HETATM   21  C9  HET A   1)           0.295597        3.7044     1.09180     2.61260
   22          N(HETATM   22  N5  HET A   1)          -0.479368        5.4794     1.75451     3.72485
   23          C(HETATM   23  C10 HET A   1)           0.253783        3.7462     1.03643     2.70978
   24          H(HETATM   24 1H1  HET A   1)           0.137849        0.8622     0.86215
   25          H(HETATM   25 2H1  HET A   1)           0.160376        0.8396     0.83962
   26          H(HETATM   26  H2  HET A   1)           0.156172        0.8438     0.84383
   27          H(HETATM   27  H5  HET A   1)           0.181184        0.8188     0.81882
   28          H(HETATM   28 1H4  HET A   1)           0.187746        0.8123     0.81225
   29          H(HETATM   29 2H4  HET A   1)           0.218536        0.7815     0.78146
   30          H(HETATM   30  H3  HET A   1)           0.156469        0.8435     0.84353
   31          H(HETATM   31  H6  HET A   1)           0.215846        0.7842     0.78415
   32          H(HETATM   32 1H3  HET A   1)           0.334129        0.6659     0.66587
   33          H(HETATM   33 2H3  HET A   1)           0.365266        0.6347     0.63473
   34          H(HETATM   34  H9  HET A   1)           0.215714        0.7843     0.78429
   35          P(HETATM   35  P2  HET A   1)           0.358165        4.6418     1.62487     2.82877     0.18820
   36          O(HETATM   36  O7  HET A   1)          -0.173218        6.1732     1.88607     4.28715
   37          O(HETATM   37  O8  HET A   1)          -0.127961        6.1280     1.89386     4.23410
   38          O(HETATM   38  O9  HET A   1)          -0.399330        6.3993     1.83362     4.56571
   39          C(HETATM   39  C11 HET A   1)          -0.014051        4.0141     1.08152     2.93254
   40          C(HETATM   40  C12 HET A   1)           0.006063        3.9939     1.10571     2.88822
   41          O(HETATM   41  O10 HET A   1)          -0.372475        6.3725     1.89452     4.47795
   42          C(HETATM   42  C13 HET A   1)           0.126949        3.8731     1.08645     2.78660
   43          O(HETATM   43  O11 HET A   1)          -0.546718        6.5467     1.84804     4.69868
   44          C(HETATM   44  C14 HET A   1)          -0.408135        4.4081     1.08180     3.32634
   45          C(HETATM   45  C15 HET A   1)           0.295361        3.7046     1.09192     2.61272
   46          N(HETATM   46  N6  HET A   1)          -0.438662        5.4387     1.55619     3.88247
   47          C(HETATM   47  C16 HET A   1)           0.697837        3.3022     1.02747     2.27469
   48          O(HETATM   48  O12 HET A   1)          -0.493416        6.4934     1.88655     4.60686
   49          N(HETATM   49  N7  HET A   1)          -0.580542        5.5805     1.56114     4.01941
   50          C(HETATM   50  C17 HET A   1)           0.611869        3.3881     1.06577     2.32236
   51          O(HETATM   51  O13 HET A   1)          -0.569541        6.5695     1.88668     4.68286
   52          C(HETATM   52  C18 HET A   1)          -0.264958        4.2650     1.05949     3.20547
   53          C(HETATM   53  C19 HET A   1)          -0.410427        4.4104     1.05064     3.35979
   54          C(HETATM   54  C20 HET A   1)           0.104960        3.8950     1.08458     2.81046
   55          H(HETATM   55 1H11 HET A   1)           0.142303        0.8577     0.85770
   56          H(HETATM   56 2H11 HET A   1)           0.160112        0.8399     0.83989
   57          H(HETATM   57  H12 HET A   1)           0.155363        0.8446     0.84464
   58          H(HETATM   58  H15 HET A   1)           0.160712        0.8393     0.83929
   59          H(HETATM   59 1H14 HET A   1)           0.189913        0.8101     0.81009
   60          H(HETATM   60 2H14 HET A   1)           0.171641        0.8284     0.82836
   61          H(HETATM   61  H13 HET A   1)           0.169386        0.8306     0.83061
   62          H(HETATM   62  H20 HET A   1)           0.198771        0.8012     0.80123
   63          H(HETATM   63 1H19 HET A   1)           0.157316        0.8427     0.84268
   64          H(HETATM   64 2H19 HET A   1)           0.146167        0.8538     0.85383
   65          H(HETATM   65 3H19 HET A   1)           0.184339        0.8157     0.81566
   66          H(HETATM   66  H7  HET A   1)           0.372768        0.6272     0.62723
   67          H(HETATM   67  H11 HET A   1)           0.319601        0.6804     0.68040
   68          H(HETATM   68  H1  HET B   2)           0.345144        0.6549     0.65486
   69          O(HETATM   69  O1  HET B   2)          -0.432069        6.4321     1.76169     4.67038
   70          P(HETATM   70  P1  HET B   2)           0.409663        4.5903     1.62018     2.79261     0.17755
   71          O(HETATM   71  O2  HET B   2)          -0.169955        6.1700     1.88841     4.28154
   72          O(HETATM   72  O3  HET B   2)          -0.127110        6.1271     1.89082     4.23629
   73          O(HETATM   73  O4  HET B   2)          -0.251100        6.2511     1.84628     4.40483
   74          C(HETATM   74  C1  HET B   2)          -0.059806        4.0598     1.08451     2.97530
   75          C(HETATM   75  C2  HET B   2)           0.040388        3.9596     1.10142     2.85820
   76          O(HETATM   76  O5  HET B   2)          -0.387883        6.3879     1.89318     4.49471
   77          C(HETATM   77  C3  HET B   2)           0.106988        3.8930     1.07397     2.81904
   78          O(HETATM   78  O6  HET B   2)          -0.318333        6.3183     1.83660     4.48173
   79          C(HETATM   79  C4  HET B   2)          -0.368650        4.3687     1.08262     3.28603
   80          C(HETATM   80  C5  HET B   2)           0.303851        3.6961     1.09680     2.59935
   81          N(HETATM   81  N1  HET B   2)          -0.354816        5.3548     1.55235     3.80247
   82          C(HETATM   82  C6  HET B   2)           0.120635        3.8794     1.08732     2.79204
   83          N(HETATM   83  N2  HET B   2)          -0.334054        5.3341     1.75211     3.58194
   84          C(HETATM   84  C7  HET B   2)          -0.199464        4.1995     1.03636     3.16310
   85          C(HETATM   85  C8  HET B   2)           0.471971        3.5280     1.02899     2.49904
   86          N(HETATM   86  N3  HET B   2)          -0.522603        5.5226     1.52322     3.99938
   87          N(HETATM   87  N4  HET B   2)          -0.598926        5.5989     1.73642     3.86251
   88          C(HETATM   88  C9  HET B   2)           0.295908        3.7041     1.09122     2.61287
   89          N(HETATM   89  N5  HET B   2)          -0.485055        5.4851     1.75437     3.73069
   90          C(HETATM   90  C10 HET B   2)           0.253626        3.7464     1.03634     2.71003
   91          H(HETATM   91 1H1  HET B   2)           0.139291        0.8607     0.86071
   92          H(HETATM   92 2H1  HET B   2)           0.164356        0.8356     0.83564
   93          H(HETATM   93  H2  HET B   2)           0.157030        0.8430     0.84297
   94          H(HETATM   94  H5  HET B   2)           0.182489        0.8175     0.81751
   95          H(HETATM   95 1H4  HET B   2)           0.187317        0.8127     0.81268
   96          H(HETATM   96 2H4  HET B   2)           0.219669        0.7803     0.78033
   97          H(HETATM   97  H3  HET B   2)           0.156079        0.8439     0.84392
   98          H(HETATM   98  H6  HET B   2)           0.212466        0.7875     0.78753
   99          H(HETATM   99 1H3  HET B   2)           0.333780        0.6662     0.66622
  100          H(HETATM  100 2H3  HET B   2)           0.364715        0.6353     0.63528
  101          H(HETATM  101  H9  HET B   2)           0.215344        0.7847     0.78466
  102          P(HETATM  102  P2  HET B   2)           0.355867        4.6441     1.62509     2.83095     0.18810
  103          O(HETATM  103  O7  HET B   2)          -0.183419        6.1834     1.88566     4.29776
  104          O(HETATM  104  O8  HET B   2)          -0.126459        6.1265     1.89405     4.23241
  105          O(HETATM  105  O9  HET B   2)          -0.398875        6.3989     1.83391     4.56497
  106          C(HETATM  106  C11 HET B   2)          -0.019059        4.0191     1.08345     2.93561
  107          C(HETATM  107  C12 HET B   2)           0.041616        3.9584     1.09951     2.85888
  108          O(HETATM  108  O10 HET B   2)          -0.358348        6.3583     1.89489     4.46346
  109          C(HETATM  109  C13 HET B   2)           0.118395        3.8816     1.08391     2.79770
  110          O(HETATM  110  O11 HET B   2)          -0.551187        6.5512     1.84631     4.70488
  111          C(HETATM  111  C14 HET B   2)          -0.400403        4.4004     1.08029     3.32012
  112          C(HETATM  112  C15 HET B   2)           0.307469        3.6925     1.09236     2.60017
  113          N(HETATM  113  N6  HET B   2)          -0.441810        5.4418     1.55828     3.88353
  114          C(HETATM  114  C16 HET B   2)           0.698235        3.3018     1.02694     2.27482
  115          O(HETATM  115  O12 HET B   2)          -0.489022        6.4890     1.88625     4.60277
  116          N(HETATM  116  N7  HET B   2)          -0.582520        5.5825     1.56135     4.02117
  117          C(HETATM  117  C17 HET B   2)           0.613901        3.3861     1.06540     2.32070
  118          O(HETATM  118  O13 HET B   2)          -0.572274        6.5723     1.88608     4.68620
  119          C(HETATM  119  C18 HET B   2)          -0.267339        4.2673     1.05908     3.20826
  120          C(HETATM  120  C19 HET B   2)          -0.410407        4.4104     1.05059     3.35982
  121          C(HETATM  121  C20 HET B   2)           0.107313        3.8927     1.08505     2.80763
  122          H(HETATM  122 1H11 HET B   2)           0.140623        0.8594     0.85938
  123          H(HETATM  123 2H11 HET B   2)           0.161749        0.8383     0.83825
  124          H(HETATM  124  H12 HET B   2)           0.159095        0.8409     0.84091
  125          H(HETATM  125  H15 HET B   2)           0.172078        0.8279     0.82792
  126          H(HETATM  126 1H14 HET B   2)           0.184773        0.8152     0.81523
  127          H(HETATM  127 2H14 HET B   2)           0.162553        0.8374     0.83745
  128          H(HETATM  128  H13 HET B   2)           0.137126        0.8629     0.86287
  129          H(HETATM  129  H20 HET B   2)           0.196857        0.8031     0.80314
  130          H(HETATM  130 1H19 HET B   2)           0.156398        0.8436     0.84360
  131          H(HETATM  131 2H19 HET B   2)           0.145381        0.8546     0.85462
  132          H(HETATM  132 3H19 HET B   2)           0.184151        0.8158     0.81585
  133          H(HETATM  133  H7  HET B   2)           0.371302        0.6287     0.62870
  134          H(HETATM  134  H11 HET B   2)           0.315912        0.6841     0.68409
 DIPOLE           X         Y         Z       TOTAL
 POINT-CHG.     2.379     2.260     1.928     3.806
 HYBRID         0.615     1.182     1.286     1.852
 SUM            2.994     3.441     3.215     5.580


          ATOMIC ORBITAL ELECTRON POPULATIONS

                   Atom                  s        px        py        pz      x^2-y^2     xz        z^2       yz        xy
   H(HETATM    1  H1  HET A   1)   0.65486
   O(HETATM    2  O1  HET A   1)   1.76372   1.87102   1.35063   1.44363
   P(HETATM    3  P1  HET A   1)   1.62091   0.94435   0.91604   0.93926   0.03700   0.03500   0.03898   0.03358   0.03257
   O(HETATM    4  O2  HET A   1)   1.88937   1.09978   1.78442   1.38068
   O(HETATM    5  O3  HET A   1)   1.88981   1.26788   1.75912   1.23009
   O(HETATM    6  O4  HET A   1)   1.84492   1.64810   1.55725   1.21779
   C(HETATM    7  C1  HET A   1)   1.08254   1.14066   1.03406   0.79795
   C(HETATM    8  C2  HET A   1)   1.10055   0.82207   0.97213   1.06769
   O(HETATM    9  O5  HET A   1)   1.89326   1.30657   1.58321   1.60451
   C(HETATM   10  C3  HET A   1)   1.07329   1.01375   0.86217   0.94095
   O(HETATM   11  O6  HET A   1)   1.83399   1.82821   1.28731   1.37463
   C(HETATM   12  C4  HET A   1)   1.08378   1.02136   1.15001   1.11315
   C(HETATM   13  C5  HET A   1)   1.09616   0.79954   0.90272   0.90046
   N(HETATM   14  N1  HET A   1)   1.55250   1.12069   1.41260   1.26133
   C(HETATM   15  C6  HET A   1)   1.08907   0.97993   0.93252   0.87814
   N(HETATM   16  N2  HET A   1)   1.75192   1.08765   1.22404   1.26279
   C(HETATM   17  C7  HET A   1)   1.03581   0.99357   1.14132   1.03280
   C(HETATM   18  C8  HET A   1)   1.02899   0.85541   0.81663   0.82747
   N(HETATM   19  N3  HET A   1)   1.52304   1.20129   1.47685   1.31444
   N(HETATM   20  N4  HET A   1)   1.73623   1.40857   1.27688   1.17010
   C(HETATM   21  C9  HET A   1)   1.09180   0.80950   0.86735   0.93575
   N(HETATM   22  N5  HET A   1)   1.75451   1.21161   1.27436   1.23889
   C(HETATM   23  C10 HET A   1)   1.03643   0.84335   0.94300   0.92343
   H(HETATM   24 1H1  HET A   1)   0.86215
   H(HETATM   25 2H1  HET A   1)   0.83962
   H(HETATM   26  H2  HET A   1)   0.84383
   H(HETATM   27  H5  HET A   1)   0.81882
   H(HETATM   28 1H4  HET A   1)   0.81225
   H(HETATM   29 2H4  HET A   1)   0.78146
   H(HETATM   30  H3  HET A   1)   0.84353
   H(HETATM   31  H6  HET A   1)   0.78415
   H(HETATM   32 1H3  HET A   1)   0.66587
   H(HETATM   33 2H3  HET A   1)   0.63473
   H(HETATM   34  H9  HET A   1)   0.78429
   P(HETATM   35  P2  HET A   1)   1.62487   0.94396   0.93290   0.95191   0.03676   0.04272   0.03878   0.03561   0.03433
   O(HETATM   36  O7  HET A   1)   1.88607   1.37079   1.57775   1.33861
   O(HETATM   37  O8  HET A   1)   1.89386   1.51514   1.68012   1.03884
   O(HETATM   38  O9  HET A   1)   1.83362   1.45931   1.76900   1.33740
   C(HETATM   39  C11 HET A   1)   1.08152   1.05899   1.04642   0.82712
   C(HETATM   40  C12 HET A   1)   1.10571   0.82252   0.99447   1.07124
   O(HETATM   41  O10 HET A   1)   1.89452   1.31721   1.57618   1.58457
   C(HETATM   42  C13 HET A   1)   1.08645   1.07085   0.86492   0.85083
   O(HETATM   43  O11 HET A   1)   1.84804   1.42290   1.59448   1.68130
   C(HETATM   44  C14 HET A   1)   1.08180   1.06324   1.15009   1.11301
   C(HETATM   45  C15 HET A   1)   1.09192   0.98469   0.85720   0.77083
   N(HETATM   46  N6  HET A   1)   1.55619   1.13044   1.49229   1.25974
   C(HETATM   47  C16 HET A   1)   1.02747   0.75369   0.75614   0.76485
   O(HETATM   48  O12 HET A   1)   1.88655   1.58986   1.53607   1.48093
   N(HETATM   49  N7  HET A   1)   1.56114   1.25686   1.49659   1.26595
   C(HETATM   50  C17 HET A   1)   1.06577   0.85934   0.71632   0.74670
   O(HETATM   51  O13 HET A   1)   1.88668   1.75776   1.52557   1.39953
   C(HETATM   52  C18 HET A   1)   1.05949   1.00751   1.14576   1.05220
   C(HETATM   53  C19 HET A   1)   1.05064   1.12006   1.14650   1.09323
   C(HETATM   54  C20 HET A   1)   1.08458   1.03239   0.89294   0.88513
   H(HETATM   55 1H11 HET A   1)   0.85770
   H(HETATM   56 2H11 HET A   1)   0.83989
   H(HETATM   57  H12 HET A   1)   0.84464
   H(HETATM   58  H15 HET A   1)   0.83929
   H(HETATM   59 1H14 HET A   1)   0.81009
   H(HETATM   60 2H14 HET A   1)   0.82836
   H(HETATM   61  H13 HET A   1)   0.83061
   H(HETATM   62  H20 HET A   1)   0.80123
   H(HETATM   63 1H19 HET A   1)   0.84268
   H(HETATM   64 2H19 HET A   1)   0.85383
   H(HETATM   65 3H19 HET A   1)   0.81566
   H(HETATM   66  H7  HET A   1)   0.62723
   H(HETATM   67  H11 HET A   1)   0.68040
   H(HETATM   68  H1  HET B   2)   0.65486
   O(HETATM   69  O1  HET B   2)   1.76169   1.84533   1.46808   1.35697
   P(HETATM   70  P1  HET B   2)   1.62018   0.94118   0.92482   0.92661   0.03417   0.03386   0.03712   0.03793   0.03449
   O(HETATM   71  O2  HET B   2)   1.88841   1.13166   1.43411   1.71577
   O(HETATM   72  O3  HET B   2)   1.89082   1.27382   1.33686   1.62561
   O(HETATM   73  O4  HET B   2)   1.84628   1.61576   1.31307   1.47600
   C(HETATM   74  C1  HET B   2)   1.08451   1.14458   0.86189   0.96883
   C(HETATM   75  C2  HET B   2)   1.10142   0.81665   1.07385   0.96769
   O(HETATM   76  O5  HET B   2)   1.89318   1.28367   1.36142   1.84961
   C(HETATM   77  C3  HET B   2)   1.07397   1.02761   0.96554   0.82589
   O(HETATM   78  O6  HET B   2)   1.83660   1.84758   1.37032   1.26383
   C(HETATM   79  C4  HET B   2)   1.08262   1.02281   1.09046   1.17277
   C(HETATM   80  C5  HET B   2)   1.09680   0.81859   0.81230   0.96846
   N(HETATM   81  N1  HET B   2)   1.55235   1.11996   1.45891   1.22359
   C(HETATM   82  C6  HET B   2)   1.08732   0.99284   0.95440   0.84480
   N(HETATM   83  N2  HET B   2)   1.75211   1.07464   1.22888   1.27842
   C(HETATM   84  C7  HET B   2)   1.03636   0.99042   1.17583   0.99685
   C(HETATM   85  C8  HET B   2)   1.02899   0.85711   0.81292   0.82901
   N(HETATM   86  N3  HET B   2)   1.52322   1.20870   1.53308   1.25760
   N(HETATM   87  N4  HET B   2)   1.73642   1.41425   1.31638   1.13188
   C(HETATM   88  C9  HET B   2)   1.09122   0.82316   0.83950   0.95020
   N(HETATM   89  N5  HET B   2)   1.75437   1.19062   1.29865   1.24142
   C(HETATM   90  C10 HET B   2)   1.03634   0.83754   0.94872   0.92377
   H(HETATM   91 1H1  HET B   2)   0.86071
   H(HETATM   92 2H1  HET B   2)   0.83564
   H(HETATM   93  H2  HET B   2)   0.84297
   H(HETATM   94  H5  HET B   2)   0.81751
   H(HETATM   95 1H4  HET B   2)   0.81268
   H(HETATM   96 2H4  HET B   2)   0.78033
   H(HETATM   97  H3  HET B   2)   0.84392
   H(HETATM   98  H6  HET B   2)   0.78753
   H(HETATM   99 1H3  HET B   2)   0.66622
   H(HETATM  100 2H3  HET B   2)   0.63528
   H(HETATM  101  H9  HET B   2)   0.78466
   P(HETATM  102  P2  HET B   2)   1.62509   0.94485   0.94840   0.93769   0.03473   0.03892   0.03805   0.03873   0.03768
   O(HETATM  103  O7  HET B   2)   1.88566   1.42167   1.55714   1.31896
   O(HETATM  104  O8  HET B   2)   1.89405   1.53825   1.23821   1.45596
   O(HETATM  105  O9  HET B   2)   1.83391   1.43134   1.33111   1.80252
   C(HETATM  106  C11 HET B   2)   1.08345   1.04246   0.85474   1.03841
   C(HETATM  107  C12 HET B   2)   1.09951   0.83159   1.06632   0.96097
   O(HETATM  108  O10 HET B   2)   1.89489   1.33765   1.31847   1.80734
   C(HETATM  109  C13 HET B   2)   1.08391   1.04354   0.94464   0.80951
   O(HETATM  110  O11 HET B   2)   1.84631   1.68663   1.74193   1.27632
   C(HETATM  111  C14 HET B   2)   1.08029   1.07907   1.09093   1.15011
   C(HETATM  112  C15 HET B   2)   1.09236   1.00004   0.77200   0.82812
   N(HETATM  113  N6  HET B   2)   1.55828   1.12825   1.48460   1.27067
   C(HETATM  114  C16 HET B   2)   1.02694   0.75704   0.75220   0.76558
   O(HETATM  115  O12 HET B   2)   1.88625   1.54888   1.56241   1.49149
   N(HETATM  116  N7  HET B   2)   1.56135   1.25553   1.50455   1.26109
   C(HETATM  117  C17 HET B   2)   1.06540   0.85353   0.72090   0.74627
   O(HETATM  118  O13 HET B   2)   1.88608   1.78738   1.51042   1.38839
   C(HETATM  119  C18 HET B   2)   1.05908   1.01037   1.15140   1.04648
   C(HETATM  120  C19 HET B   2)   1.05059   1.10740   1.14229   1.11013
   C(HETATM  121  C20 HET B   2)   1.08505   1.01765   0.89695   0.89302
   H(HETATM  122 1H11 HET B   2)   0.85938
   H(HETATM  123 2H11 HET B   2)   0.83825
   H(HETATM  124  H12 HET B   2)   0.84091
   H(HETATM  125  H15 HET B   2)   0.82792
   H(HETATM  126 1H14 HET B   2)   0.81523
   H(HETATM  127 2H14 HET B   2)   0.83745
   H(HETATM  128  H13 HET B   2)   0.86287
   H(HETATM  129  H20 HET B   2)   0.80314
   H(HETATM  130 1H19 HET B   2)   0.84360
   H(HETATM  131 2H19 HET B   2)   0.85462
   H(HETATM  132 3H19 HET B   2)   0.81585
   H(HETATM  133  H7  HET B   2)   0.62870
   H(HETATM  134  H11 HET B   2)   0.68409

 **********************
 *                    *
 * JOB ENDED NORMALLY *
 *                    *
 **********************



 TOTAL JOB TIME:            12.07 SECONDS

 == MOPAC DONE ==
