 argument  1 = HF+.b3lyp_doublet.nw



============================== echo of input deck ==============================
echo

start molecule

title "HF+ | Equilibrium Geometry | B3LYP/daug-cc-pVDZ"

charge +1

print low

geometry units angstroms print xyz autosym
F     -7.495632    1.264070   -0.005417
H     -8.290988    1.365470   -0.494508
end

basis
  * library 6-31G*
end

dft
  xc b3lyp
  mult 2
  odft
end

driver
  maxiter 50
end

task dft optimize
================================================================================


                                         
                                         


             Northwest Computational Chemistry Package (NWChem) 7.2.2
             --------------------------------------------------------


                    Environmental Molecular Sciences Laboratory
                       Pacific Northwest National Laboratory
                                Richland, WA 99352

                              Copyright (c) 1994-2022
                       Pacific Northwest National Laboratory
                            Battelle Memorial Institute

             NWChem is an open-source computational chemistry package
                        distributed under the terms of the
                      Educational Community License (ECL) 2.0
             A copy of the license is included with this distribution
                              in the LICENSE.TXT file

                                  ACKNOWLEDGMENT
                                  --------------

            This software and its documentation were developed at the
            EMSL at Pacific Northwest National Laboratory, a multiprogram
            national laboratory, operated for the U.S. Department of Energy
            by Battelle under Contract Number DE-AC05-76RL01830. Support
            for this work was provided by the Department of Energy Office
            of Biological and Environmental Research, Office of Basic
            Energy Sciences, and the Office of Advanced Scientific Computing.


           Job information
           ---------------

    hostname        = DESKTOP-7OTLCGO
    program         = nwchem
    date            = Thu Feb 19 16:10:40 2026

    compiled        = Mon_Apr_01_11:12:32_2024
    source          = /build/nwchem-qbYJLs/nwchem-7.2.2/build-openmpi
    nwchem branch   = 7.2.2
    nwchem revision = N/A
    ga revision     = N/A
    use scalapack   = T
    input           = HF+.b3lyp_doublet.nw
    prefix          = molecule.
    data base       = ./molecule.db
    status          = startup
    nproc           =        4
    time left       =     -1s



           Memory information
           ------------------

    heap     =   26214396 doubles =    200.0 Mbytes
    stack    =   26214401 doubles =    200.0 Mbytes
    global   =   52428800 doubles =    400.0 Mbytes (distinct from heap & stack)
    total    =  104857597 doubles =    800.0 Mbytes
    verify   = yes
    hardfail = no 


           Directory information
           ---------------------

  0 permanent = .
  0 scratch   = .




                                NWChem Input Module
                                -------------------


                  HF+ | Equilibrium Geometry | B3LYP/daug-cc-pVDZ
                  -----------------------------------------------

 Scaling coordinates for geometry "geometry" by  1.889725989
 (inverse scale =  0.529177249)


          ------
          auto-z
          ------
  no constraints, skipping    0.0000000000000000     
  no constraints, skipping    0.0000000000000000     


                             Geometry "geometry" -> ""
                             -------------------------

 Output coordinates in angstroms (scale by  1.889725989 to convert to a.u.)

  No.       Tag          Charge          X              Y              Z
 ---- ---------------- ---------- -------------- -------------- --------------
    1 F                    9.0000     0.00000000     0.00000000     0.09391928
    2 H                    1.0000     0.00000000     0.00000000    -0.84527353

      Atomic Mass 
      ----------- 

      F                 18.998400
      H                  1.007825


 Effective nuclear repulsion energy (a.u.)       5.0709451711

            Nuclear Dipole moment (a.u.) 
            ----------------------------
        X                 Y               Z
 ---------------- ---------------- ----------------
     0.0000000000     0.0000000000     0.0000000000

      Symmetry information
      --------------------

 Group name             C4v       
 Group number             18
 Group order               8
 No. of unique centers     2

      Symmetry unique atoms

     1    2



                                Z-matrix (autoz)
                                -------- 

 Units are Angstrom for bonds and degrees for angles

      Type          Name      I     J     K     L     M      Value
      ----------- --------  ----- ----- ----- ----- ----- ----------
    1 Stretch                  1     2                       0.93919


            XYZ format geometry
            -------------------
     2
 geometry
 F                     0.00000000     0.00000000     0.09391928
 H                     0.00000000     0.00000000    -0.84527353

 ==============================================================================
                                internuclear distances
 ------------------------------------------------------------------------------
       center one      |      center two      | atomic units |  angstroms
 ------------------------------------------------------------------------------
    2 H                |   1 F                |     1.77482  |     0.93919
 ------------------------------------------------------------------------------
                         number of included internuclear distances:          1
 ==============================================================================





 Summary of "ao basis" -> "" (cartesian)
 ------------------------------------------------------------------------------
       Tag                 Description            Shells   Functions and Types
 ---------------- ------------------------------  ------  ---------------------
 *                           6-31G*                   on all atoms 




                           NWChem Geometry Optimization
                           ----------------------------




                  HF+ | Equilibrium Geometry | B3LYP/daug-cc-pVDZ


  no constraints, skipping    0.0000000000000000     
 maximum gradient threshold         (gmax) =   0.000450
 rms gradient threshold             (grms) =   0.000300
 maximum cartesian step threshold   (xmax) =   0.001800
 rms cartesian step threshold       (xrms) =   0.001200
 fixed trust radius                (trust) =   0.300000
 maximum step size to saddle      (sadstp) =   0.100000
 energy precision                  (eprec) =   5.0D-06
 maximum number of steps          (nptopt) =   50
 initial hessian option           (inhess) =    0
 line search option               (linopt) =    1
 hessian update option            (modupd) =    1
 saddle point option              (modsad) =    0
 initial eigen-mode to follow     (moddir) =    0
 initial variable to follow       (vardir) =    0
 follow first negative mode     (firstneg) =    T
 apply conjugacy                    (opcg) =    F
 source of zmatrix                         =   autoz   


          -------------------
          Energy Minimization
          -------------------


 Names of Z-matrix variables 
    1         

 Variables with the same non-blank name are constrained to be equal


 Using diagonal initial Hessian 
 Scaling for Hessian diagonals: bonds = 1.00  angles = 0.25  torsions = 0.10

          --------
          Step   0
          --------

                                 NWChem DFT Module
                                 -----------------


                  HF+ | Equilibrium Geometry | B3LYP/daug-cc-pVDZ


                      Basis "ao basis" -> "ao basis" (cartesian)
                      -----
  F (Fluorine)
  ------------
            Exponent  Coefficients 
       -------------- ---------------------------------------------------------
  1 S  7.00171309E+03  0.001820
  1 S  1.05136609E+03  0.013916
  1 S  2.39285690E+02  0.068405
  1 S  6.73974453E+01  0.233186
  1 S  2.15199573E+01  0.471267
  1 S  7.40310130E+00  0.356619

  2 S  2.08479528E+01 -0.108507
  2 S  4.80830834E+00 -0.146452
  2 S  1.34406986E+00  1.128689

  3 P  2.08479528E+01  0.071629
  3 P  4.80830834E+00  0.345912
  3 P  1.34406986E+00  0.722470

  4 S  3.58151393E-01  1.000000

  5 P  3.58151393E-01  1.000000

  6 D  8.00000000E-01  1.000000

  H (Hydrogen)
  ------------
            Exponent  Coefficients 
       -------------- ---------------------------------------------------------
  1 S  1.87311370E+01  0.033495
  1 S  2.82539370E+00  0.234727
  1 S  6.40121700E-01  0.813757

  2 S  1.61277800E-01  1.000000



 Summary of "ao basis" -> "ao basis" (cartesian)
 ------------------------------------------------------------------------------
       Tag                 Description            Shells   Functions and Types
 ---------------- ------------------------------  ------  ---------------------
 F                           6-31G*                  6       15   3s2p1d
 H                           6-31G*                  2        2   2s



  Caching 1-el integrals 

 !! scf_movecs_sym_adapt:    2 vectors were symmetry contaminated

  Symmetry fudging

 !! scf_movecs_sym_adapt:    2 vectors were symmetry contaminated


 !! scf_movecs_sym_adapt:    2 vectors were symmetry contaminated

  Symmetry fudging

 !! scf_movecs_sym_adapt:    2 vectors were symmetry contaminated

  WARNING: movecs_in_org=atomic not equal to movecs_in=./molecule.movecs
   Time after variat. SCF:      0.1
   Time prior to 1st pass:      0.1
 Warning: spatial symmetry breaking:  beta =  1.73D-01

           Memory utilization after 1st SCF pass: 
           Heap Space remaining (MW):       25.95            25954756
          Stack Space remaining (MW):       26.21            26214132

   convergence    iter        energy       DeltaE   RMS-Dens  Diis-err    time
 ---------------- ----- ----------------- --------- --------- ---------  ------
 d= 0,ls=0.0,diis     1    -99.6818229533 -1.05D+02  2.56D-02  4.00D-01     0.2
                                                     2.47D-02  3.46D-01
 Warning: spatial symmetry breaking:  beta =  2.05D-01
 d= 0,ls=0.5,diis     2    -99.6911710843 -9.35D-03  1.01D-02  3.98D-01     0.2
                                                     8.21D-03  2.50D-01
 Warning: spatial symmetry breaking:  beta =  2.11D-01
 d= 0,ls=0.5,diis     3    -99.7927843586 -1.02D-01  2.90D-03  1.86D-02     0.2
                                                     2.37D-03  1.03D-02
 Warning: spatial symmetry breaking:  beta =  2.12D-01
 d= 0,ls=0.5,diis     4    -99.7981973920 -5.41D-03  8.30D-04  8.61D-04     0.2
                                                     7.03D-04  4.64D-04
 Warning: spatial symmetry breaking:  beta =  2.12D-01
 d= 0,ls=0.5,diis     5    -99.7985290352 -3.32D-04  3.00D-04  7.21D-05     0.2
                                                     2.55D-04  4.27D-05
  Resetting Diis
 Warning: spatial symmetry breaking:  beta =  2.12D-01
 d= 0,ls=0.5,diis     6    -99.7985662194 -3.72D-05  1.18D-04  1.01D-05     0.3
                                                     9.40D-05  6.33D-06
 Warning: spatial symmetry breaking:  beta =  2.12D-01
 d= 0,ls=0.5,diis     7    -99.7985718003 -5.58D-06  5.34D-05  1.37D-06     0.3
                                                     4.55D-05  9.12D-07
 Warning: spatial symmetry breaking:  beta =  2.12D-01
 d= 0,ls=0.5,diis     8    -99.7985726139 -8.14D-07  1.97D-05  3.82D-07     0.3
                                                     1.53D-05  2.47D-07
 Warning: spatial symmetry breaking:  beta =  2.12D-01
 d= 0,ls=0.5,diis     9    -99.7985727650 -1.51D-07  7.46D-06  2.65D-08     0.3
                                                     5.37D-06  1.48D-08


         Total DFT energy =      -99.798572782264
      One electron energy =     -144.281973340961
           Coulomb energy =       49.734600168468
    Exchange-Corr. energy =      -10.322144780882
 Nuclear repulsion energy =        5.070945171111

 Numeric. integr. density =        8.999999237478

     Total iterative time =      0.2s



                  Occupations of the irreducible representations
                  ----------------------------------------------

                     irrep           alpha         beta
                     --------     --------     --------
                     a1                3.0          3.0
                     a2                0.0          0.0
                     b1                0.0          0.0
                     b2                0.0          0.0
                     e                 2.0          1.0


     --------------------------
     Expectation value of S2:  
     --------------------------
      <S2> =      0.7525 (Exact =     0.7500)



                         DFT ENERGY GRADIENTS

    atom               coordinates                        gradient
                 x          y          z           x          y          z
   1 F       0.000000   0.000000   0.177482    0.000000   0.000000  -0.073021
   2 H       0.000000   0.000000  -1.597335    0.000000   0.000000   0.073021

  no constraints, skipping    0.0000000000000000     

@ Step       Energy      Delta E   Gmax     Grms     Xrms     Xmax   Walltime
@ ---- ---------------- -------- -------- -------- -------- -------- --------
@    0     -99.79857278  0.0D+00  0.07302  0.07302  0.00000  0.00000      0.3
                                                                    

  no constraints, skipping    0.0000000000000000     
  no constraints, skipping    0.0000000000000000     
  no constraints, skipping    0.0000000000000000     

                                 NWChem DFT Module
                                 -----------------


                  HF+ | Equilibrium Geometry | B3LYP/daug-cc-pVDZ



  Caching 1-el integrals 
   Time after variat. SCF:      0.4
   Time prior to 1st pass:      0.4
 Warning: spatial symmetry breaking:  beta =  2.12D-01

           Memory utilization after 1st SCF pass: 
           Heap Space remaining (MW):       25.95            25954756
          Stack Space remaining (MW):       26.21            26214132

   convergence    iter        energy       DeltaE   RMS-Dens  Diis-err    time
 ---------------- ----- ----------------- --------- --------- ---------  ------
 d= 0,ls=0.5,diis     1   -100.1391936382 -1.05D+02  2.87D-03  6.75D-03     0.4
                                                     2.89D-02  6.54D-03
 Warning: spatial symmetry breaking:  beta =  2.11D-01
 d= 0,ls=0.5,diis     2    -99.8042758448  3.35D-01  6.68D-04  3.34D-04     0.4
                                                     6.70D-04  3.82D-04
 Warning: spatial symmetry breaking:  beta =  2.11D-01
 d= 0,ls=0.5,diis     3    -99.8044437949 -1.68D-04  1.74D-04  1.79D-05     0.4
                                                     2.25D-04  3.14D-05
 Warning: spatial symmetry breaking:  beta =  2.11D-01
 d= 0,ls=0.5,diis     4    -99.8044617285 -1.79D-05  7.74D-05  6.44D-06     0.4
                                                     6.82D-05  2.33D-06
 Warning: spatial symmetry breaking:  beta =  2.11D-01
 d= 0,ls=0.5,diis     5    -99.8044645530 -2.82D-06  2.70D-05  3.48D-07     0.5
                                                     3.77D-05  6.05D-07
 Warning: spatial symmetry breaking:  beta =  2.11D-01
 d= 0,ls=0.5,diis     6    -99.8044651195 -5.67D-07  1.22D-05  3.73D-08     0.5
                                                     2.20D-05  1.55D-07
 Warning: spatial symmetry breaking:  beta =  2.11D-01
 d= 0,ls=0.5,diis     7    -99.8044652679 -1.48D-07  6.31D-06  5.44D-09     0.5
                                                     1.12D-05  3.45D-08
 Warning: spatial symmetry breaking:  beta =  2.11D-01
 d= 0,ls=0.5,diis     8    -99.8044653014 -3.36D-08  2.77D-06  8.56D-10     0.5
                                                     5.25D-06  7.39D-09


         Total DFT energy =      -99.804465308139
      One electron energy =     -143.473263459155
           Coulomb energy =       49.459636756626
    Exchange-Corr. energy =      -10.285611496986
 Nuclear repulsion energy =        4.494772891376

 Numeric. integr. density =        8.999997611898

     Total iterative time =      0.1s



                  Occupations of the irreducible representations
                  ----------------------------------------------

                     irrep           alpha         beta
                     --------     --------     --------
                     a1                3.0          3.0
                     a2                0.0          0.0
                     b1                0.0          0.0
                     b2                0.0          0.0
                     e                 2.0          1.0


     --------------------------
     Expectation value of S2:  
     --------------------------
      <S2> =      0.7529 (Exact =     0.7500)

 Line search: 
     step= 1.00 grad=-1.7D-02 hess= 1.1D-02 energy=    -99.804465 mode=downhill
 new step= 0.77                   predicted energy=    -99.805009
  no constraints, skipping    0.0000000000000000     
  no constraints, skipping    0.0000000000000000     
  no constraints, skipping    0.0000000000000000     

          --------
          Step   1
          --------

                                 NWChem DFT Module
                                 -----------------


                  HF+ | Equilibrium Geometry | B3LYP/daug-cc-pVDZ



  Caching 1-el integrals 
   Time after variat. SCF:      0.5
   Time prior to 1st pass:      0.5
 Warning: spatial symmetry breaking:  beta =  2.14D-01

           Memory utilization after 1st SCF pass: 
           Heap Space remaining (MW):       25.95            25954756
          Stack Space remaining (MW):       26.21            26214132

   convergence    iter        energy       DeltaE   RMS-Dens  Diis-err    time
 ---------------- ----- ----------------- --------- --------- ---------  ------
 d= 0,ls=0.5,diis     1   -100.1418184120 -1.05D+02  5.73D-04  2.76D-04     0.6
                                                     2.87D-02  1.03D-03
 Warning: spatial symmetry breaking:  beta =  2.13D-01
 d= 0,ls=0.5,diis     2    -99.8046244556  3.37D-01  2.40D-04  1.83D-04     0.6
                                                     3.51D-04  5.85D-04
 Warning: spatial symmetry breaking:  beta =  2.12D-01
 d= 0,ls=0.5,diis     3    -99.8047493821 -1.25D-04  6.36D-05  4.68D-06     0.6
                                                     2.22D-04  1.29D-04
 Warning: spatial symmetry breaking:  beta =  2.11D-01
 d= 0,ls=0.5,diis     4    -99.8047777258 -2.83D-05  2.01D-05  1.57D-06     0.6
                                                     1.38D-04  2.94D-05
 Warning: spatial symmetry breaking:  beta =  2.11D-01
 d= 0,ls=0.5,diis     5    -99.8047861557 -8.43D-06  1.70D-05  1.86D-08     0.6
                                                     4.95D-05  2.39D-06
 Warning: spatial symmetry breaking:  beta =  2.11D-01
 d= 0,ls=0.5,diis     6    -99.8047870674 -9.12D-07  7.88D-06  1.10D-08     0.6
                                                     1.29D-05  1.11D-07
 Warning: spatial symmetry breaking:  beta =  2.11D-01
 d= 0,ls=0.5,diis     7    -99.8047871310 -6.35D-08  3.48D-06  3.29D-09     0.6
                                                     2.85D-06  5.48D-09


         Total DFT energy =      -99.804787136398
      One electron energy =     -143.637913125415
           Coulomb energy =       49.513031486439
    Exchange-Corr. energy =      -10.292694046006
 Nuclear repulsion energy =        4.612788548584

 Numeric. integr. density =        8.999999105308

     Total iterative time =      0.1s



                  Occupations of the irreducible representations
                  ----------------------------------------------

                     irrep           alpha         beta
                     --------     --------     --------
                     a1                3.0          3.0
                     a2                0.0          0.0
                     b1                0.0          0.0
                     b2                0.0          0.0
                     e                 2.0          1.0


     --------------------------
     Expectation value of S2:  
     --------------------------
      <S2> =      0.7528 (Exact =     0.7500)



                         DFT ENERGY GRADIENTS

    atom               coordinates                        gradient
                 x          y          z           x          y          z
   1 F       0.000000   0.000000   0.265622    0.000000   0.000000   0.001208
   2 H       0.000000   0.000000  -1.685476    0.000000   0.000000  -0.001208

  no constraints, skipping    0.0000000000000000     

  Step       Energy      Delta E   Gmax     Grms     Xrms     Xmax   Walltime
  ---- ---------------- -------- -------- -------- -------- -------- --------
@    1     -99.80478714 -6.2D-03  0.00121  0.00121  0.05089  0.08814      0.6
                                                                    

  no constraints, skipping    0.0000000000000000     
  no constraints, skipping    0.0000000000000000     
  no constraints, skipping    0.0000000000000000     

                                 NWChem DFT Module
                                 -----------------


                  HF+ | Equilibrium Geometry | B3LYP/daug-cc-pVDZ



  Caching 1-el integrals 
   Time after variat. SCF:      0.7
   Time prior to 1st pass:      0.7
 Warning: spatial symmetry breaking:  beta =  2.14D-01

           Memory utilization after 1st SCF pass: 
           Heap Space remaining (MW):       25.95            25954756
          Stack Space remaining (MW):       26.21            26214132

   convergence    iter        energy       DeltaE   RMS-Dens  Diis-err    time
 ---------------- ----- ----------------- --------- --------- ---------  ------
 d= 0,ls=0.5,diis     1   -100.1421036210 -1.05D+02  6.43D-05  4.54D-06     0.7
                                                     2.87D-02  6.86D-04
 Warning: spatial symmetry breaking:  beta =  2.13D-01
 d= 0,ls=0.5,diis     2    -99.8046625513  3.37D-01  1.49D-04  9.14D-05     0.7
                                                     2.60D-04  4.67D-04
 Warning: spatial symmetry breaking:  beta =  2.12D-01
 d= 0,ls=0.5,diis     3    -99.8047440342 -8.15D-05  3.44D-05  1.78D-06     0.8
                                                     1.51D-04  1.37D-04
 Warning: spatial symmetry breaking:  beta =  2.11D-01
 d= 0,ls=0.5,diis     4    -99.8047656573 -2.16D-05  3.65D-05  5.37D-07     0.8
                                                     1.76D-04  5.68D-05
 Warning: spatial symmetry breaking:  beta =  2.11D-01
 d= 0,ls=0.5,diis     5    -99.8047802433 -1.46D-05  2.49D-05  3.27D-08     0.8
                                                     7.65D-05  6.67D-06
 Warning: spatial symmetry breaking:  beta =  2.11D-01
 d= 0,ls=0.5,diis     6    -99.8047825039 -2.26D-06  1.24D-05  2.74D-08     0.8
                                                     2.27D-05  3.93D-07
 Warning: spatial symmetry breaking:  beta =  2.11D-01
 d= 0,ls=0.5,diis     7    -99.8047826990 -1.95D-07  5.66D-06  7.94D-09     0.8
                                                     6.20D-06  2.43D-08


         Total DFT energy =      -99.804782718198
      One electron energy =     -143.647462391401
           Coulomb energy =       49.516214655711
    Exchange-Corr. energy =      -10.293114316204
 Nuclear repulsion energy =        4.619579333695

 Numeric. integr. density =        8.999999217251

     Total iterative time =      0.1s



                  Occupations of the irreducible representations
                  ----------------------------------------------

                     irrep           alpha         beta
                     --------     --------     --------
                     a1                3.0          3.0
                     a2                0.0          0.0
                     b1                0.0          0.0
                     b2                0.0          0.0
                     e                 2.0          1.0


     --------------------------
     Expectation value of S2:  
     --------------------------
      <S2> =      0.7528 (Exact =     0.7500)

 Line search: 
     step= 1.00 grad=-3.5D-06 hess= 7.9D-06 energy=    -99.804783 mode=accept  
 new step= 1.00                   predicted energy=    -99.804783
  no constraints, skipping    0.0000000000000000     
  no constraints, skipping    0.0000000000000000     
  no constraints, skipping    0.0000000000000000     

          --------
          Step   2
          --------

                                 NWChem DFT Module
                                 -----------------


                  HF+ | Equilibrium Geometry | B3LYP/daug-cc-pVDZ




  The DFT is already converged 

         Total DFT energy =    -99.804782718198



                         DFT ENERGY GRADIENTS

    atom               coordinates                        gradient
                 x          y          z           x          y          z
   1 F       0.000000   0.000000   0.264188    0.000000   0.000000   0.000348
   2 H       0.000000   0.000000  -1.684041    0.000000   0.000000  -0.000348

  no constraints, skipping    0.0000000000000000     

  Step       Energy      Delta E   Gmax     Grms     Xrms     Xmax   Walltime
  ---- ---------------- -------- -------- -------- -------- -------- --------
@    2     -99.80478272  4.4D-06  0.00035  0.00035  0.00083  0.00143      0.8
                                     ok                ok       ok  

  no constraints, skipping    0.0000000000000000     
  no constraints, skipping    0.0000000000000000     
  no constraints, skipping    0.0000000000000000     

                                 NWChem DFT Module
                                 -----------------


                  HF+ | Equilibrium Geometry | B3LYP/daug-cc-pVDZ



  Caching 1-el integrals 
   Time after variat. SCF:      0.9
   Time prior to 1st pass:      0.9
 Warning: spatial symmetry breaking:  beta =  2.14D-01

           Memory utilization after 1st SCF pass: 
           Heap Space remaining (MW):       25.95            25954756
          Stack Space remaining (MW):       26.21            26214132

   convergence    iter        energy       DeltaE   RMS-Dens  Diis-err    time
 ---------------- ----- ----------------- --------- --------- ---------  ------
 d= 0,ls=0.5,diis     1   -100.1421149546 -1.05D+02  5.86D-05  3.78D-06     0.9
                                                     2.87D-02  6.81D-04
 Warning: spatial symmetry breaking:  beta =  2.13D-01
 d= 0,ls=0.5,diis     2    -99.8046612467  3.37D-01  1.47D-04  8.86D-05     0.9
                                                     2.59D-04  4.63D-04
 Warning: spatial symmetry breaking:  beta =  2.12D-01
 d= 0,ls=0.5,diis     3    -99.8047418038 -8.06D-05  3.50D-05  1.62D-06     1.0
                                                     1.50D-04  1.36D-04
 Warning: spatial symmetry breaking:  beta =  2.11D-01
 d= 0,ls=0.5,diis     4    -99.8047631637 -2.14D-05  3.70D-05  4.93D-07     1.0
                                                     1.74D-04  5.67D-05
 Warning: spatial symmetry breaking:  beta =  2.11D-01
 d= 0,ls=0.5,diis     5    -99.8047776829 -1.45D-05  2.53D-05  3.37D-08     1.0
                                                     7.74D-05  6.82D-06
 Warning: spatial symmetry breaking:  beta =  2.11D-01
 d= 0,ls=0.5,diis     6    -99.8047799908 -2.31D-06  1.25D-05  2.84D-08     1.0
                                                     2.28D-05  3.99D-07
 Warning: spatial symmetry breaking:  beta =  2.11D-01
 d= 0,ls=0.5,diis     7    -99.8047801889 -1.98D-07  5.77D-06  8.21D-09     1.0
                                                     6.38D-06  2.55D-08


         Total DFT energy =      -99.804780208885
      One electron energy =     -143.651311457944
           Coulomb energy =       49.517483984315
    Exchange-Corr. energy =      -10.293282699861
 Nuclear repulsion energy =        4.622329964605

 Numeric. integr. density =        8.999999262194

     Total iterative time =      0.1s



                  Occupations of the irreducible representations
                  ----------------------------------------------

                     irrep           alpha         beta
                     --------     --------     --------
                     a1                3.0          3.0
                     a2                0.0          0.0
                     b1                0.0          0.0
                     b2                0.0          0.0
                     e                 2.0          1.0


     --------------------------
     Expectation value of S2:  
     --------------------------
      <S2> =      0.7527 (Exact =     0.7500)

 Line search: 
     step= 1.00 grad=-4.0D-07 hess= 2.9D-06 energy=    -99.804780 mode=accept  
 new step= 1.00                   predicted energy=    -99.804780
  no constraints, skipping    0.0000000000000000     
  no constraints, skipping    0.0000000000000000     
  no constraints, skipping    0.0000000000000000     

          --------
          Step   3
          --------

                                 NWChem DFT Module
                                 -----------------


                  HF+ | Equilibrium Geometry | B3LYP/daug-cc-pVDZ




  The DFT is already converged 

         Total DFT energy =    -99.804780208885



                         DFT ENERGY GRADIENTS

    atom               coordinates                        gradient
                 x          y          z           x          y          z
   1 F       0.000000   0.000000   0.263608    0.000000   0.000000  -0.000003
   2 H       0.000000   0.000000  -1.683462    0.000000   0.000000   0.000003

  no constraints, skipping    0.0000000000000000     

  Step       Energy      Delta E   Gmax     Grms     Xrms     Xmax   Walltime
  ---- ---------------- -------- -------- -------- -------- -------- --------
@    3     -99.80478021  2.5D-06  0.00000  0.00000  0.00033  0.00058      1.0
                                     ok       ok       ok       ok  


      ----------------------
      Optimization converged
      ----------------------


  Step       Energy      Delta E   Gmax     Grms     Xrms     Xmax   Walltime
  ---- ---------------- -------- -------- -------- -------- -------- --------
@    3     -99.80478021  2.5D-06  0.00000  0.00000  0.00033  0.00058      1.0
                                     ok       ok       ok       ok  



                         Geometry "geometry" -> "geometry"
                         ---------------------------------

 Output coordinates in angstroms (scale by  1.889725989 to convert to a.u.)

  No.       Tag          Charge          X              Y              Z
 ---- ---------------- ---------- -------------- -------------- --------------
    1 F                    9.0000     0.00000000     0.00000000     0.13949545
    2 H                    1.0000     0.00000000     0.00000000    -0.89084970

      Atomic Mass 
      ----------- 

      F                 18.998400
      H                  1.007825


 Effective nuclear repulsion energy (a.u.)       4.6223299646

            Nuclear Dipole moment (a.u.) 
            ----------------------------
        X                 Y               Z
 ---------------- ---------------- ----------------
     0.0000000000     0.0000000000     0.6890117564

      Symmetry information
      --------------------

 Group name             C4v       
 Group number             18
 Group order               8
 No. of unique centers     2

      Symmetry unique atoms

     1    2


                Final and change from initial internal coordinates
                --------------------------------------------------



                                Z-matrix (autoz)
                                -------- 

 Units are Angstrom for bonds and degrees for angles

      Type          Name      I     J     K     L     M      Value       Change
      ----------- --------  ----- ----- ----- ----- ----- ---------- ----------
    1 Stretch                  1     2                       1.03035    0.09115



                                NWChem Input Module
                                -------------------




                                     CITATION
                                     --------
                Please cite the following reference when publishing
                           results obtained with NWChem:

          E. Apra, E. J. Bylaska, W. A. de Jong, N. Govind, K. Kowalski,
       T. P. Straatsma, M. Valiev, H. J. J. van Dam, Y. Alexeev, J. Anchell,
       V. Anisimov, F. W. Aquino, R. Atta-Fynn, J. Autschbach, N. P. Bauman,
     J. C. Becca, D. E. Bernholdt, K. Bhaskaran-Nair, S. Bogatko, P. Borowski,
         J. Boschen, J. Brabec, A. Bruner, E. Cauet, Y. Chen, G. N. Chuev,
      C. J. Cramer, J. Daily, M. J. O. Deegan, T. H. Dunning Jr., M. Dupuis,
   K. G. Dyall, G. I. Fann, S. A. Fischer, A. Fonari, H. Fruchtl, L. Gagliardi,
      J. Garza, N. Gawande, S. Ghosh, K. Glaesemann, A. W. Gotz, J. Hammond,
       V. Helms, E. D. Hermes, K. Hirao, S. Hirata, M. Jacquelin, L. Jensen,
   B. G. Johnson, H. Jonsson, R. A. Kendall, M. Klemm, R. Kobayashi, V. Konkov,
      S. Krishnamoorthy, M. Krishnan, Z. Lin, R. D. Lins, R. J. Littlefield,
      A. J. Logsdail, K. Lopata, W. Ma, A. V. Marenich, J. Martin del Campo,
   D. Mejia-Rodriguez, J. E. Moore, J. M. Mullin, T. Nakajima, D. R. Nascimento,
    J. A. Nichols, P. J. Nichols, J. Nieplocha, A. Otero-de-la-Roza, B. Palmer,
    A. Panyala, T. Pirojsirikul, B. Peng, R. Peverati, J. Pittner, L. Pollack,
   R. M. Richard, P. Sadayappan, G. C. Schatz, W. A. Shelton, D. W. Silverstein,
   D. M. A. Smith, T. A. Soares, D. Song, M. Swart, H. L. Taylor, G. S. Thomas,
            V. Tipparaju, D. G. Truhlar, K. Tsemekhman, T. Van Voorhis,
      A. Vazquez-Mayagoitia, P. Verma, O. Villa, A. Vishnu, K. D. Vogiatzis,
        D. Wang, J. H. Weare, M. J. Williamson, T. L. Windus, K. Wolinski,
        A. T. Wong, Q. Wu, C. Yang, Q. Yu, M. Zacharias, Z. Zhang, Y. Zhao,
                                and R. J. Harrison
                        "NWChem: Past, present, and future
                         J. Chem. Phys. 152, 184102 (2020)
                               doi:10.1063/5.0004997

                                      AUTHORS
                                      -------
  E. Apra, E. J. Bylaska, N. Govind, K. Kowalski, M. Valiev, D. Mejia-Rodriguez,
       A. Kunitsa, N. P. Bauman, A. Panyala, W. A. de Jong, T. P. Straatsma,
   H. J. J. van Dam, D. Wang, T. L. Windus, J. Hammond, J. Autschbach, A. Woods,
    K. Bhaskaran-Nair, J. Brabec, K. Lopata, S. A. Fischer, S. Krishnamoorthy,
     M. Jacquelin, W. Ma, M. Klemm, O. Villa, Y. Chen, V. Anisimov, F. Aquino,
     S. Hirata, M. T. Hackler, E. Hermes, L. Jensen, J. E. Moore, J. C. Becca,
      V. Konjkov, T. Risthaus, M. Malagoli, A. Marenich, A. Otero-de-la-Roza,
        J. Mullin, P. Nichols, R. Peverati, J. Pittner, Y. Zhao, P.-D. Fan,
        A. Fonari, M. J. Williamson, R. J. Harrison, J. R. Rehr, M. Dupuis,
     D. Silverstein, D. M. A. Smith, J. Nieplocha, V. Tipparaju, M. Krishnan,
     B. E. Van Kuiken, A. Vazquez-Mayagoitia, M. Swart, Q. Wu, T. Van Voorhis,
     A. A. Auer, M. Nooijen, L. D. Crosby, E. Brown, G. Cisneros, G. I. Fann,
   H. Fruchtl, J. Garza, K. Hirao, R. A. Kendall, J. A. Nichols, K. Tsemekhman,
    K. Wolinski, J. Anchell, D. E. Bernholdt, P. Borowski, T. Clark, D. Clerc,
   H. Dachsel, M. J. O. Deegan, K. Dyall, D. Elwood, E. Glendening, M. Gutowski,
   A. C. Hess, J. Jaffe, B. G. Johnson, J. Ju, R. Kobayashi, R. Kutteh, Z. Lin,
   R. Littlefield, X. Long, B. Meng, T. Nakajima, S. Niu, L. Pollack, M. Rosing,
   K. Glaesemann, G. Sandrone, M. Stave, H. Taylor, G. Thomas, J. H. van Lenthe,
                               A. T. Wong, Z. Zhang.

 Total times  cpu:        0.8s     wall:        1.0s
