 *******************************************************************************
 **                                                                           **
 **                              MOPAC v23.1.2                                **
 **                                                                           **
 *******************************************************************************
 **          Digital Object Identifier (DOI): 10.5281/zenodo.6511958          **
 **    Visit the DOI location for information on how to cite this program.    **
 *******************************************************************************

                              PM7 CALCULATION RESULTS

 *******************************************************************************
 *  CALCULATION DONE: (MAX THREADS = 12)             Thu Feb 19 06:30:12 2026  *
 *  SINGLET    - SPIN STATE DEFINED AS A SINGLET
 *  PDBOUT     - PRINT GEOMETRY IN PDB FORMAT
 *  RHF        - RESTRICTED HARTREE-FOCK CALCULATION
 *  RESIDUES   - DETERMINE THE SEQUENCE OF RESIDUES
 *
 *
 *
 *                 CHARGE ON SYSTEM = 0
 *
 *
 *
 *  PRECISE    - TIGHTER CRITERIA TO BE USED
 *  T=         - A TIME OF 172800.0 SECONDS REQUESTED
 *  DUMP=N     - RESTART FILE WRITTEN EVERY 7200.0 SECONDS REQUESTED
 *  AUX        - OUTPUT AUXILIARY INFORMATION
 *******************************************************************************
 AUX PRECISE CHARGE=0 SINGLET  PDBOUT RHF
 O4Xe | Equilibrium Geometry | PM7

   ATOM   CHEMICAL          X               Y               Z
  NUMBER   SYMBOL      (ANGSTROMS)     (ANGSTROMS)     (ANGSTROMS)
 
     1      Xe         -3.04815500  *   1.73798800  *  -0.01587100  *
     2       O         -3.46118300  *   4.31630100  *   0.00672800  *
     3       O         -4.75136900  *   0.81939600  *  -1.79031200  *
     4       O         -3.50994200  *   0.07784100  *   1.91759400  *
     5       O         -0.45943600  *   1.37892700  *  -0.04921000  *
 


          CARTESIAN COORDINATES 

    NO.       ATOM           X           Y           Z

     1        Xe         -3.0482      1.7380     -0.0159
     2         O         -3.4612      4.3163      0.0067
     3         O         -4.7514      0.8194     -1.7903
     4         O         -3.5099      0.0778      1.9176
     5         O         -0.4594      1.3789     -0.0492

 General Reference for PM7:
 "Optimization of Parameters for Semiempirical Methods VI: More Modifications to the 
 NDDO Approximations and Re-optimization of Parameters", J. J. P. Stewart, J. Mol. Mod., 1:32, 19 (2013)
 https://link.springer.com/article/10.1007/s00894-012-1667-x

           Empirical Formula: O4 Xe  =     5 atoms



      MOLECULAR POINT GROUP   :   C1  


 SINGLET STATE CALCULATION


      RHF CALCULATION, NO. OF DOUBLY OCCUPIED LEVELS = 15


          Geometry optimization using EF


 ALL CONVERGERS ARE NOW FORCED ON
 SHIFT=10, PULAY ON, CAMP-KING ON
 AND ITERATION COUNTER RESET



          DIAGONAL MATRIX USED AS START HESSIAN

 CYCLE:     1 TIME:   0.129 TIME LEFT:  2.00D  GRAD.:    99.770 HEAT:  439.6207
 CYCLE:     2 TIME:   0.002 TIME LEFT:  2.00D  GRAD.:   153.904 HEAT:  417.0215
 CYCLE:     3 TIME:   0.000 TIME LEFT:  2.00D  GRAD.:   283.618 HEAT:  355.1572
 CYCLE:     4 TIME:   0.002 TIME LEFT:  2.00D  GRAD.:   695.820 HEAT:  346.0778
 CYCLE:     5 TIME:   0.000 TIME LEFT:  2.00D  GRAD.:   262.296 HEAT:  297.0691
 CYCLE:     6 TIME:   0.002 TIME LEFT:  2.00D  GRAD.:   248.860 HEAT:  225.4509
 CYCLE:     7 TIME:   0.000 TIME LEFT:  2.00D  GRAD.:   148.192 HEAT:  207.8991
 CYCLE:     8 TIME:   0.006 TIME LEFT:  2.00D  GRAD.:    95.377 HEAT:  200.2576
 CYCLE:     9 TIME:   0.004 TIME LEFT:  2.00D  GRAD.:    50.009 HEAT:  194.4074
 CYCLE:    10 TIME:   0.008 TIME LEFT:  2.00D  GRAD.:    80.755 HEAT:  192.7451
 CYCLE:    11 TIME:   0.004 TIME LEFT:  2.00D  GRAD.:    33.293 HEAT:  191.0808
 CYCLE:    12 TIME:   0.006 TIME LEFT:  2.00D  GRAD.:    18.747 HEAT:  190.1112


 ALL CONVERGERS ARE NOW FORCED ON
 SHIFT=10, PULAY ON, CAMP-KING ON
 AND ITERATION COUNTER RESET


 CYCLE:    13 TIME:   0.057 TIME LEFT:  2.00D  GRAD.:    45.539 HEAT:  188.8730
 CYCLE:    14 TIME:   0.000 TIME LEFT:  2.00D  GRAD.:    18.043 HEAT:  188.3716


 ALL CONVERGERS ARE NOW FORCED ON
 SHIFT=10, PULAY ON, CAMP-KING ON
 AND ITERATION COUNTER RESET


 CYCLE:    15 TIME:   0.062 TIME LEFT:  2.00D  GRAD.:    25.241 HEAT:  187.9713
 CYCLE:    16 TIME:   0.000 TIME LEFT:  2.00D  GRAD.:    75.257 HEAT:  181.8022
 CYCLE:    17 TIME:   0.002 TIME LEFT:  2.00D  GRAD.:   124.468 HEAT:  162.1108
 CYCLE:    18 TIME:   0.004 TIME LEFT:  2.00D  GRAD.:    37.001 HEAT:  153.5008
 CYCLE:    19 TIME:   0.000 TIME LEFT:  2.00D  GRAD.:    73.306 HEAT:  152.2876


 ALL CONVERGERS ARE NOW FORCED ON
 SHIFT=10, PULAY ON, CAMP-KING ON
 AND ITERATION COUNTER RESET


 CYCLE:    20 TIME:   0.061 TIME LEFT:  2.00D  GRAD.:    45.117 HEAT:  151.0213
 CYCLE:    21 TIME:   0.000 TIME LEFT:  2.00D  GRAD.:    35.740 HEAT:  149.9514
 CYCLE:    22 TIME:   0.002 TIME LEFT:  2.00D  GRAD.:    19.032 HEAT:  147.7363
 CYCLE:    23 TIME:   0.000 TIME LEFT:  2.00D  GRAD.:    29.685 HEAT:  147.4284
 CYCLE:    24 TIME:   0.002 TIME LEFT:  2.00D  GRAD.:    12.210 HEAT:  147.1863
 CYCLE:    25 TIME:   0.000 TIME LEFT:  2.00D  GRAD.:     5.416 HEAT:  147.1194
 CYCLE:    26 TIME:   0.002 TIME LEFT:  2.00D  GRAD.:     5.359 HEAT:  147.1057
 CYCLE:    27 TIME:   0.000 TIME LEFT:  2.00D  GRAD.:     7.008 HEAT:  147.0848
 CYCLE:    28 TIME:   0.002 TIME LEFT:  2.00D  GRAD.:     6.956 HEAT:  147.0545
 CYCLE:    29 TIME:   0.000 TIME LEFT:  2.00D  GRAD.:     4.751 HEAT:  147.0257
 CYCLE:    30 TIME:   0.002 TIME LEFT:  2.00D  GRAD.:     1.503 HEAT:  147.0183
 CYCLE:    31 TIME:   0.000 TIME LEFT:  2.00D  GRAD.:     1.285 HEAT:  147.0165
 CYCLE:    32 TIME:   0.002 TIME LEFT:  2.00D  GRAD.:     0.915 HEAT:  147.0158
 CYCLE:    33 TIME:   0.000 TIME LEFT:  2.00D  GRAD.:     0.792 HEAT:  147.0143
 CYCLE:    34 TIME:   0.002 TIME LEFT:  2.00D  GRAD.:     1.495 HEAT:  147.0120
 CYCLE:    35 TIME:   0.000 TIME LEFT:  2.00D  GRAD.:     3.097 HEAT:  147.0038
 CYCLE:    36 TIME:   0.002 TIME LEFT:  2.00D  GRAD.:     0.673 HEAT:  146.9987
 CYCLE:    37 TIME:   0.000 TIME LEFT:  2.00D  GRAD.:     1.521 HEAT:  146.9990
 CYCLE:    38 TIME:   0.002 TIME LEFT:  2.00D  GRAD.:     0.082 HEAT:  146.9985
 CYCLE:    39 TIME:   0.000 TIME LEFT:  2.00D  GRAD.:     0.084 HEAT:  146.9985
 CYCLE:    40 TIME:   0.002 TIME LEFT:  2.00D  GRAD.:     0.093 HEAT:  146.9985
 CYCLE:    41 TIME:   0.002 TIME LEFT:  2.00D  GRAD.:     0.118 HEAT:  146.9983
 CYCLE:    42 TIME:   0.002 TIME LEFT:  2.00D  GRAD.:     0.189 HEAT:  146.9977
 CYCLE:    43 TIME:   0.002 TIME LEFT:  2.00D  GRAD.:     0.201 HEAT:  146.9968
 CYCLE:    44 TIME:   0.004 TIME LEFT:  2.00D  GRAD.:     5.012 HEAT:  146.9961
 CYCLE:    45 TIME:   0.002 TIME LEFT:  2.00D  GRAD.:     1.578 HEAT:  146.9949
 CYCLE:    46 TIME:   0.000 TIME LEFT:  2.00D  GRAD.:     0.229 HEAT:  146.9913
 CYCLE:    47 TIME:   0.000 TIME LEFT:  2.00D  GRAD.:     0.401 HEAT:  146.9903
 CYCLE:    48 TIME:   0.002 TIME LEFT:  2.00D  GRAD.:     0.184 HEAT:  146.9900
 CYCLE:    49 TIME:   0.000 TIME LEFT:  2.00D  GRAD.:     1.253 HEAT:  146.9916
 CYCLE:    50 TIME:   0.002 TIME LEFT:  2.00D  GRAD.:     0.181 HEAT:  146.9895
 CYCLE:    51 TIME:   0.000 TIME LEFT:  2.00D  GRAD.:     0.136 HEAT:  146.9892
 CYCLE:    52 TIME:   0.002 TIME LEFT:  2.00D  GRAD.:     0.149 HEAT:  146.9889
 CYCLE:    53 TIME:   0.000 TIME LEFT:  2.00D  GRAD.:     0.179 HEAT:  146.9885
 CYCLE:    54 TIME:   0.004 TIME LEFT:  2.00D  GRAD.:     1.630 HEAT:  146.9880
 CYCLE:    55 TIME:   0.002 TIME LEFT:  2.00D  GRAD.:     0.339 HEAT:  146.9890
 CYCLE:    56 TIME:   0.000 TIME LEFT:  2.00D  GRAD.:     0.863 HEAT:  146.9874
 CYCLE:    57 TIME:   0.002 TIME LEFT:  2.00D  GRAD.:     0.804 HEAT:  146.9871
 CYCLE:    58 TIME:   0.000 TIME LEFT:  2.00D  GRAD.:     0.068 HEAT:  146.9870
 CYCLE:    59 TIME:   0.002 TIME LEFT:  2.00D  GRAD.:     0.066 HEAT:  146.9868
 CYCLE:    60 TIME:   0.000 TIME LEFT:  2.00D  GRAD.:     0.094 HEAT:  146.9866
 CYCLE:    61 TIME:   0.002 TIME LEFT:  2.00D  GRAD.:     0.181 HEAT:  146.9864
 CYCLE:    62 TIME:   0.002 TIME LEFT:  2.00D  GRAD.:     0.087 HEAT:  146.9862
 CYCLE:    63 TIME:   0.002 TIME LEFT:  2.00D  GRAD.:     0.215 HEAT:  146.9860
 CYCLE:    64 TIME:   0.002 TIME LEFT:  2.00D  GRAD.:     0.148 HEAT:  146.9858
 CYCLE:    65 TIME:   0.002 TIME LEFT:  2.00D  GRAD.:     0.078 HEAT:  146.9857
 CYCLE:    66 TIME:   0.002 TIME LEFT:  2.00D  GRAD.:     0.265 HEAT:  146.9855
 CYCLE:    67 TIME:   0.000 TIME LEFT:  2.00D  GRAD.:     0.304 HEAT:  146.9852
 CYCLE:    68 TIME:   0.002 TIME LEFT:  2.00D  GRAD.:     0.652 HEAT:  146.9840
 CYCLE:    69 TIME:   0.002 TIME LEFT:  2.00D  GRAD.:     3.511 HEAT:  146.9858
 CYCLE:    70 TIME:   0.000 TIME LEFT:  2.00D  GRAD.:     0.472 HEAT:  146.9826
 CYCLE:    71 TIME:   0.002 TIME LEFT:  2.00D  GRAD.:     0.656 HEAT:  146.9817
 CYCLE:    72 TIME:   0.000 TIME LEFT:  2.00D  GRAD.:     0.380 HEAT:  146.9813
 CYCLE:    73 TIME:   0.002 TIME LEFT:  2.00D  GRAD.:     0.819 HEAT:  146.9806
 CYCLE:    74 TIME:   0.002 TIME LEFT:  2.00D  GRAD.:     0.543 HEAT:  146.9807
 CYCLE:    75 TIME:   0.000 TIME LEFT:  2.00D  GRAD.:     0.268 HEAT:  146.9804
 CYCLE:    76 TIME:   0.002 TIME LEFT:  2.00D  GRAD.:     0.116 HEAT:  146.9802
 CYCLE:    77 TIME:   0.000 TIME LEFT:  2.00D  GRAD.:     1.246 HEAT:  146.9801
 CYCLE:    78 TIME:   0.002 TIME LEFT:  2.00D  GRAD.:     0.091 HEAT:  146.9800
 CYCLE:    79 TIME:   0.002 TIME LEFT:  2.00D  GRAD.:     0.125 HEAT:  146.9798
 CYCLE:    80 TIME:   0.000 TIME LEFT:  2.00D  GRAD.:     0.047 HEAT:  146.9798

     GRADIENT =  0.04672 IS LESS THAN CUTOFF =  0.05000



 -------------------------------------------------------------------------------
 AUX PRECISE CHARGE=0 SINGLET  PDBOUT RHF
 O4Xe | Equilibrium Geometry | PM7



     GEOMETRY OPTIMISED USING EIGENVECTOR FOLLOWING (EF).     
     SCF FIELD WAS ACHIEVED                                   


                              PM7 CALCULATION
                                                       MOPAC v23.1.2 Linux
                                                       Thu Feb 19 06:30:13 2026




          FINAL HEAT OF FORMATION =        146.97981 KCAL/MOL =     614.96352 KJ/MOL


          COSMO AREA              =        125.47 SQUARE ANGSTROMS
          COSMO VOLUME            =        111.53 CUBIC ANGSTROMS

          GRADIENT NORM           =          0.04672          =       0.02089 PER ATOM
          IONIZATION POTENTIAL    =         11.564541 EV
          HOMO LUMO ENERGIES (EV) =        -11.565 -6.186
          NO. OF FILLED LEVELS    =         15
          MOLECULAR WEIGHT        =        195.2976         POINT GROUP:  C1  

          MOLECULAR DIMENSIONS (Angstroms)

            Atom       Atom       Distance
            O     5    O     3     4.22408
            O     2    O     4     3.10294
            O     3    O     2     2.32912


          SCF CALCULATIONS        =         87
 
          WALL-CLOCK TIME         =      0.459 SECONDS
          COMPUTATION TIME        =      2.236 SECONDS




   ATOM                 CHEMICAL                   X               Y               Z
  NUMBER                 SYMBOL               (ANGSTROMS)     (ANGSTROMS)     (ANGSTROMS)
 
     1      Xe(HETATM    1 XE    XE A   1)   -3.56879873  *   1.77206140  *   0.08726689  *
     2       O(HETATM    2  O   HOH B   2)   -3.26215623  *   3.53556298  *   0.18557112  *
     3       O(HETATM    3  O   HOH B   3)   -4.08817461  *   1.03921078  *  -1.46419183  *
     4       O(HETATM    4  O   HOH B   4)   -3.35501186  *   0.74117165  *   1.53813199  *
     5       O(HETATM    5  O   HOH B   5)    0.01490549  *   1.17890921  *  -0.47017131  *

                             CARTESIAN COORDINATES

   1   Xe       -3.568798732     1.772061402     0.087266886
   2    O       -3.262156230     3.535562978     0.185571122
   3    O       -4.088174607     1.039210783    -1.464191832
   4    O       -3.355011856     0.741171645     1.538131990
   5    O        0.014905485     1.178909212    -0.470171313


           Empirical Formula: O4 Xe  =     5 atoms



      MOLECULAR POINT GROUP   :   C1  


                  EIGENVALUES  
 -35.58652 -35.58408 -35.32805 -27.82867 -27.05489 -24.80698 -24.79760 -15.18990
 -12.51311 -12.43074 -12.42772 -11.71870 -11.70296 -11.56517 -11.56454  -6.18629
  -4.05835   0.61488   0.62463   2.74438


              NET ATOMIC CHARGES AND DIPOLE CONTRIBUTIONS

  ATOM NO.                 TYPE                        CHARGE      No. of ELECS.   s-Pop       p-Pop       
    1         Xe(HETATM    1 XE    XE A   1)           0.535835        5.4642     0.59948     4.86468
    2          O(HETATM    2  O   HOH B   2)          -0.178027        6.1780     1.98339     4.19463
    3          O(HETATM    3  O   HOH B   3)          -0.177346        6.1773     1.98341     4.19394
    4          O(HETATM    4  O   HOH B   4)          -0.180626        6.1806     1.98337     4.19726
    5          O(HETATM    5  O   HOH B   5)           0.000164        5.9998     2.00000     3.99984
 DIPOLE           X         Y         Z       TOTAL
 POINT-CHG.    -0.002     0.010    -0.022     0.024
 HYBRID         0.003    -0.001     0.000     0.003
 SUM            0.001     0.010    -0.022     0.024


          ATOMIC ORBITAL ELECTRON POPULATIONS

                   Atom                  s        px        py        pz   
  Xe(HETATM    1 XE    XE A   1)   0.59948   1.87988   1.48373   1.50107
   O(HETATM    2  O   HOH B   2)   1.98339   1.37895   0.90569   1.90999
   O(HETATM    3  O   HOH B   3)   1.98341   1.32035   1.75797   1.11562
   O(HETATM    4  O   HOH B   4)   1.98337   1.39732   1.58376   1.21619
   O(HETATM    5  O   HOH B   5)   2.00000   1.99616   0.97321   1.03047

 **********************
 *                    *
 * JOB ENDED NORMALLY *
 *                    *
 **********************



 TOTAL JOB TIME:             0.46 SECONDS

 == MOPAC DONE ==
