 argument  1 = /home/milias/work/git-projects/Molecular-and-Materials-Modeling-2025/molecular-modeling/themes/HF_molecule_properties/nwchem/ionization_energy/HF.ccsd_daug-cc-pVDZ.nw



============================== echo of input deck ==============================
echo

start molecule

title "HF | Equilibrium Geometry | CCSD/daug-cc-pVDZ"
charge 0

print low

geometry units angstroms print xyz autosym
F     -7.495632    1.264070   -0.005417
H     -8.290988    1.365470   -0.494508
end

basis
  * library d-aug-cc-pvdz
end

scf
  print low
end

ccsd
  freeze core
  thresh 1.0e-7
end

task ccsd optimize
================================================================================


                                         
                                         


             Northwest Computational Chemistry Package (NWChem) 7.0.2
             --------------------------------------------------------


                    Environmental Molecular Sciences Laboratory
                       Pacific Northwest National Laboratory
                                Richland, WA 99352

                              Copyright (c) 1994-2020
                       Pacific Northwest National Laboratory
                            Battelle Memorial Institute

             NWChem is an open-source computational chemistry package
                        distributed under the terms of the
                      Educational Community License (ECL) 2.0
             A copy of the license is included with this distribution
                              in the LICENSE.TXT file

                                  ACKNOWLEDGMENT
                                  --------------

            This software and its documentation were developed at the
            EMSL at Pacific Northwest National Laboratory, a multiprogram
            national laboratory, operated for the U.S. Department of Energy
            by Battelle under Contract Number DE-AC05-76RL01830. Support
            for this work was provided by the Department of Energy Office
            of Biological and Environmental Research, Office of Basic
            Energy Sciences, and the Office of Advanced Scientific Computing.


           Job information
           ---------------

    hostname        = DESKTOP-7OTLCGO
    program         = /usr/bin/nwchem
    date            = Wed Aug 27 14:40:19 2025

    compiled        = Sat_Apr_09_17:12:10_2022
    source          = /build/nwchem-f1f4gx/nwchem-7.0.2/build-openmpi
    nwchem branch   = 7.0.2
    nwchem revision = N/A
    ga revision     = 5.8.1
    use scalapack   = T
    input           = /home/milias/work/git-projects/Molecular-and-Materials-Modeling-2025/molecular-modeling/themes/HF_molecule_properties/nwchem/ionization_energy/HF.ccsd_daug-cc-pVDZ.nw
    prefix          = molecule.
    data base       = ./molecule.db
    status          = startup
    nproc           =        8
    time left       =     -1s



           Memory information
           ------------------

    heap     =   13107198 doubles =    100.0 Mbytes
    stack    =   13107195 doubles =    100.0 Mbytes
    global   =   26214400 doubles =    200.0 Mbytes (distinct from heap & stack)
    total    =   52428793 doubles =    400.0 Mbytes
    verify   = yes
    hardfail = no 


           Directory information
           ---------------------

  0 permanent = .
  0 scratch   = .




                                NWChem Input Module
                                -------------------


                   HF | Equilibrium Geometry | CCSD/daug-cc-pVDZ
                   ---------------------------------------------

 Scaling coordinates for geometry "geometry" by  1.889725989
 (inverse scale =  0.529177249)


          ------
          auto-z
          ------
  no constraints, skipping    0.0000000000000000     
  no constraints, skipping    0.0000000000000000     


                             Geometry "geometry" -> ""
                             -------------------------

 Output coordinates in angstroms (scale by  1.889725989 to convert to a.u.)

  No.       Tag          Charge          X              Y              Z
 ---- ---------------- ---------- -------------- -------------- --------------
    1 F                    9.0000     0.00000000     0.00000000     0.09391928
    2 H                    1.0000     0.00000000     0.00000000    -0.84527353

      Atomic Mass 
      ----------- 

      F                 18.998400
      H                  1.007825


 Effective nuclear repulsion energy (a.u.)       5.0709451711

            Nuclear Dipole moment (a.u.) 
            ----------------------------
        X                 Y               Z
 ---------------- ---------------- ----------------
     0.0000000000     0.0000000000     0.0000000000

      Symmetry information
      --------------------

 Group name             C4v       
 Group number             18
 Group order               8
 No. of unique centers     2

      Symmetry unique atoms

     1    2



                                Z-matrix (autoz)
                                -------- 

 Units are Angstrom for bonds and degrees for angles

      Type          Name      I     J     K     L     M      Value
      ----------- --------  ----- ----- ----- ----- ----- ----------
    1 Stretch                  1     2                       0.93919


            XYZ format geometry
            -------------------
     2
 geometry
 F                     0.00000000     0.00000000     0.09391928
 H                     0.00000000     0.00000000    -0.84527353

 ==============================================================================
                                internuclear distances
 ------------------------------------------------------------------------------
       center one      |      center two      | atomic units |  angstroms
 ------------------------------------------------------------------------------
    2 H                |   1 F                |     1.77482  |     0.93919
 ------------------------------------------------------------------------------
                         number of included internuclear distances:          1
 ==============================================================================





 Summary of "ao basis" -> "" (cartesian)
 ------------------------------------------------------------------------------
       Tag                 Description            Shells   Functions and Types
 ---------------- ------------------------------  ------  ---------------------
 *                       d-aug-cc-pvdz                on all atoms 




                           NWChem Geometry Optimization
                           ----------------------------




                   HF | Equilibrium Geometry | CCSD/daug-cc-pVDZ


  no constraints, skipping    0.0000000000000000     
 maximum gradient threshold         (gmax) =   0.000450
 rms gradient threshold             (grms) =   0.000300
 maximum cartesian step threshold   (xmax) =   0.001800
 rms cartesian step threshold       (xrms) =   0.001200
 fixed trust radius                (trust) =   0.300000
 maximum step size to saddle      (sadstp) =   0.100000
 energy precision                  (eprec) =   1.0D-07
 maximum number of steps          (nptopt) =   20
 initial hessian option           (inhess) =    0
 line search option               (linopt) =    1
 hessian update option            (modupd) =    1
 saddle point option              (modsad) =    0
 initial eigen-mode to follow     (moddir) =    0
 initial variable to follow       (vardir) =    0
 follow first negative mode     (firstneg) =    T
 apply conjugacy                    (opcg) =    F
 source of zmatrix                         =   autoz   


          -------------------
          Energy Minimization
          -------------------


 Names of Z-matrix variables 
    1         

 Variables with the same non-blank name are constrained to be equal


 Using diagonal initial Hessian 
 Scaling for Hessian diagonals: bonds = 1.00  angles = 0.25  torsions = 0.10

          --------
          Step   0
          --------
                         NWChem Numerical Gradients Module
                         ---------------------------------


 No. of totally-symmetric internal modes =   1

                      Basis "ao basis" -> "ao basis" (cartesian)
                      -----
  F (Fluorine)
  ------------
            Exponent  Coefficients 
       -------------- ---------------------------------------------------------
  1 S  1.47100000E+04  0.000721
  1 S  2.20700000E+03  0.005553
  1 S  5.02800000E+02  0.028267
  1 S  1.42600000E+02  0.106444
  1 S  4.64700000E+01  0.286814
  1 S  1.67000000E+01  0.448641
  1 S  6.35600000E+00  0.264761
  1 S  1.31600000E+00  0.015333

  2 S  1.47100000E+04 -0.000165
  2 S  2.20700000E+03 -0.001308
  2 S  5.02800000E+02 -0.006495
  2 S  1.42600000E+02 -0.026691
  2 S  4.64700000E+01 -0.073690
  2 S  1.67000000E+01 -0.170776
  2 S  6.35600000E+00 -0.112327
  2 S  1.31600000E+00  0.562814

  3 S  3.89700000E-01  1.000000

  4 S  9.86300000E-02  1.000000

  5 S  2.50000000E-02  1.000000

  6 P  2.26700000E+01  0.044878
  6 P  4.97700000E+00  0.235718
  6 P  1.34700000E+00  0.508521

  7 P  3.47100000E-01  1.000000

  8 P  8.50200000E-02  1.000000

  9 P  2.08000000E-02  1.000000

 10 D  1.64000000E+00  1.000000

 11 D  4.64000000E-01  1.000000

 12 D  1.31000000E-01  1.000000

  H (Hydrogen)
  ------------
            Exponent  Coefficients 
       -------------- ---------------------------------------------------------
  1 S  1.30100000E+01  0.019685
  1 S  1.96200000E+00  0.137977
  1 S  4.44600000E-01  0.478148

  2 S  1.22000000E-01  1.000000

  3 S  2.97400000E-02  1.000000

  4 S  7.25000000E-03  1.000000

  5 P  7.27000000E-01  1.000000

  6 P  1.41000000E-01  1.000000

  7 P  2.73000000E-02  1.000000



 Summary of "ao basis" -> "ao basis" (cartesian)
 ------------------------------------------------------------------------------
       Tag                 Description            Shells   Functions and Types
 ---------------- ------------------------------  ------  ---------------------
 F                       d-aug-cc-pvdz              12       35   5s4p3d
 H                       d-aug-cc-pvdz               7       13   4s3p


                                 NWChem SCF Module
                                 -----------------


                   HF | Equilibrium Geometry | CCSD/daug-cc-pVDZ



  ao basis        = "ao basis"
  functions       =    48
  atoms           =     2
  closed shells   =     5
  open shells     =     0
  charge          =   0.00
  wavefunction    = RHF 
  input vectors   = atomic
  output vectors  = ./molecule.movecs
  use symmetry    = T
  symmetry adapt  = T


 Forming initial guess at       0.0s


 !! scf_movecs_sym_adapt:    6 vectors were symmetry contaminated

  Symmetry fudging

 !! scf_movecs_sym_adapt:    6 vectors were symmetry contaminated


 Starting SCF solution at       0.1s



       Final RHF  results 
       ------------------ 

         Total SCF energy =   -100.033138729823
      One-electron energy =   -150.275588195631
      Two-electron energy =     45.171504294697
 Nuclear repulsion energy =      5.070945171111

        Time for solution =      0.1s


 CCSD: Non-Abelian Symmetry Not Permitted
       Symmetry has been lowered to C1
  


                   Four-Index Transformation
                   -------------------------
          Number of basis functions:             48
          Number of shells:                      19
          Number of occupied orbitals:            5
          Number of occ. correlated orbitals:     5
          Block length:                          16
          Superscript MO index range:      1 -    5
          Subscript MO index range:        1 -   48
          MO coefficients read from:  ./molecule.movecs        
          Number of operator matrices in core:   30
          Half-transformed integrals produced

     Pass:    1     Index range:    1  -    5     Time:      0.02


 ****************************************************************************
              the segmented parallel ccsd program:    8 nodes
 ****************************************************************************




 level of theory    ccsd
 number of core         0
 number of occupied     5
 number of virtual     43
 number of deleted      0
 total functions       48
 number of shells      19
 basis label          566



   ***** ccsd parameters *****
   iprt   =     0
   convi  =  0.100E-06
   maxit  =    20
   mxvec  =     5
 memory             26209836
  Using  1 OpenMP thread(s) in CCSD
  IO offset    20.000000000000000     
  IO error message >End of File
  file_read_ga: failing reading from ./molecule.t2
  Failed reading restart vector from ./molecule.t2
  Using MP2 initial guess vector 


-------------------------------------------------------------------------
 iter     correlation     delta       rms       T2     Non-T2      Main
             energy      energy      error      ampl     ampl      Block
                                                time     time      time
-------------------------------------------------------------------------
   1     -0.2319749721 -2.320D-01  1.175D-01     0.06     0.00     0.03
   2     -0.2366991324 -4.724D-03  5.756D-02     0.03     0.00     0.01
   3     -0.2366811042  1.803D-05  1.114D-02     0.03     0.00     0.01
   4     -0.2372096199 -5.285D-04  5.094D-04     0.02     0.00     0.01
   5     -0.2372537556 -4.414D-05  9.101D-04     0.03     0.00     0.01
   6     -0.2372508354  2.920D-06  4.822D-05     0.02     0.00     0.01
   7     -0.2372504683  3.671D-07  7.384D-05     0.02     0.00     0.01
   8     -0.2372507871 -3.188D-07  5.804D-06     0.02     0.00     0.01
   9     -0.2372504985  2.886D-07  6.169D-06     0.02     0.00     0.01
  10     -0.2372505052 -6.727D-09  6.282D-07     0.02     0.00     0.01
  11     -0.2372505060 -8.235D-10  4.070D-07     0.02     0.00     0.01
  12     -0.2372505071 -1.131D-09  1.070D-07     0.02     0.00     0.01
  13     -0.2372505085 -1.406D-09  1.958D-08     0.02     0.00     0.01
                  *************converged*************
-------------------------------------------------------------------------

 -----------
 CCSD Energy
 -----------
 Reference energy:            -100.033138729823094
 CCSD corr. energy:             -0.237250508544003
 Total CCSD energy:           -100.270389238367102


 --------------------------------
 Spin Component Scaled (SCS) CCSD
 --------------------------------
 Same spin contribution:                 -0.054683111369441
 Same spin scaling factor:                1.130000000000000
 Opposite spin contribution:             -0.182567397174562
 Opposite spin scaling fact.:             1.270000000000000
 SCS-CCSD correlation energy:            -0.293652510259162
 Total SCS-CCSD energy:                -100.326791240082258

 routine      calls  cpu(0)   cpu-min  cpu-ave  cpu-max   i/o 
 aoccsd          1     0.00     0.00     0.00     0.00    0.00
 iterdrv         1     0.02     0.02     0.02     0.02    0.00
 pampt          13     0.04     0.04     0.04     0.04    0.00
 t2pm           13     0.02     0.02     0.02     0.02    0.00
 sxy            13     0.03     0.02     0.04     0.05    0.00
 ints         4560     0.02     0.02     0.02     0.03    0.00
 f_write        48     0.00     0.00     0.00     0.00    0.00
 t2eri         312     0.04     0.03     0.04     0.05    0.00
 idx2          312     0.03     0.03     0.03     0.03    0.00
 idx34          13     0.01     0.00     0.01     0.01    0.00
 ht2pm          13     0.03     0.03     0.03     0.03    0.00
 itm            13     0.11     0.11     0.11     0.11    0.00
 pdiis          13     0.00     0.00     0.00     0.00    0.00
 r_read        288     0.01     0.00     0.01     0.01    0.00
 Total                 0.36     0.36     0.36     0.36    0.00
 Reference energy        -100.27038924

 Finite difference step  1.00000D-02
 Use five point formula F

                                 NWChem SCF Module
                                 -----------------


                   HF | Equilibrium Geometry | CCSD/daug-cc-pVDZ



  ao basis        = "ao basis"
  functions       =    48
  atoms           =     2
  closed shells   =     5
  open shells     =     0
  charge          =   0.00
  wavefunction    = RHF 
  input vectors   = ./molecule.movecs
  output vectors  = ./molecule.movecs
  use symmetry    = T
  symmetry adapt  = T


 Forming initial guess at       0.6s


 Starting SCF solution at       0.6s



       Final RHF  results 
       ------------------ 

         Total SCF energy =   -100.032419793598
      One-electron energy =   -150.207634594112
      Two-electron energy =     45.144356622179
 Nuclear repulsion energy =      5.030858178335

        Time for solution =      0.1s


 CCSD: Non-Abelian Symmetry Not Permitted
       Symmetry has been lowered to C1
  


                   Four-Index Transformation
                   -------------------------
          Number of basis functions:             48
          Number of shells:                      19
          Number of occupied orbitals:            5
          Number of occ. correlated orbitals:     5
          Block length:                          16
          Superscript MO index range:      1 -    5
          Subscript MO index range:        1 -   48
          MO coefficients read from:  ./molecule.movecs        
          Number of operator matrices in core:   30
          Half-transformed integrals produced

     Pass:    1     Index range:    1  -    5     Time:      0.02


 ****************************************************************************
              the segmented parallel ccsd program:    8 nodes
 ****************************************************************************




 level of theory    ccsd
 number of core         0
 number of occupied     5
 number of virtual     43
 number of deleted      0
 total functions       48
 number of shells      19
 basis label          566



   ***** ccsd parameters *****
   iprt   =     0
   convi  =  0.100E-06
   maxit  =    20
   mxvec  =     5
 memory             26209836
  Using  1 OpenMP thread(s) in CCSD
  Restarting from old vector in ./molecule.t2


-------------------------------------------------------------------------
 iter     correlation     delta       rms       T2     Non-T2      Main
             energy      energy      error      ampl     ampl      Block
                                                time     time      time
-------------------------------------------------------------------------
   1     -0.2419937100 -2.420D-01  7.480D-03     0.05     0.00     0.03
   2     -0.2351150738  6.879D-03  8.077D-02     0.02     0.00     0.01
   3     -0.2374489808 -2.334D-03  1.499D-02     0.02     0.00     0.01
   4     -0.2374295472  1.943D-05  8.208D-03     0.02     0.00     0.01
   5     -0.2376015173 -1.720D-04  1.215D-03     0.02     0.00     0.01
   6     -0.2376304897 -2.897D-05  2.511D-04     0.03     0.00     0.01
   7     -0.2376304557  3.398D-08  7.870D-05     0.03     0.00     0.01
   8     -0.2376290160  1.440D-06  1.083D-04     0.02     0.00     0.01
   9     -0.2376287186  2.974D-07  3.178D-05     0.02     0.00     0.01
  10     -0.2376286661  5.246D-08  1.090D-05     0.02     0.00     0.01
  11     -0.2376286467  1.942D-08  1.123D-06     0.03     0.00     0.01
  12     -0.2376286399  6.795D-09  3.228D-07     0.02     0.00     0.01
  13     -0.2376286441 -4.144D-09  3.618D-07     0.03     0.00     0.01
  14     -0.2376286433  7.322D-10  7.414D-08     0.03     0.00     0.01
                  *************converged*************
-------------------------------------------------------------------------

 -----------
 CCSD Energy
 -----------
 Reference energy:            -100.032419793597612
 CCSD corr. energy:             -0.237628643320046
 Total CCSD energy:           -100.270048436917662


 --------------------------------
 Spin Component Scaled (SCS) CCSD
 --------------------------------
 Same spin contribution:                 -0.054718726845368
 Same spin scaling factor:                1.130000000000000
 Opposite spin contribution:             -0.182909916474677
 Opposite spin scaling fact.:             1.270000000000000
 SCS-CCSD correlation energy:            -0.294127755258106
 Total SCS-CCSD energy:                -100.326547548855714

 routine      calls  cpu(0)   cpu-min  cpu-ave  cpu-max   i/o 
 aoccsd          1     0.00     0.00     0.00     0.00    0.00
 iterdrv         1     0.02     0.02     0.02     0.02    0.00
 pampt          14     0.03     0.03     0.03     0.03    0.00
 t2pm           14     0.02     0.02     0.02     0.02    0.00
 sxy            14     0.03     0.03     0.04     0.06    0.00
 ints         4560     0.02     0.02     0.02     0.03    0.00
 f_write        48     0.00     0.00     0.00     0.00    0.00
 t2eri         336     0.04     0.04     0.04     0.05    0.00
 idx2          336     0.04     0.03     0.03     0.04    0.00
 idx34          14     0.01     0.01     0.01     0.01    0.00
 ht2pm          14     0.03     0.03     0.03     0.03    0.00
 itm            14     0.13     0.13     0.13     0.13    0.00
 pdiis          14     0.00     0.00     0.00     0.00    0.00
 r_read        312     0.01     0.01     0.01     0.01    0.00
 Total                 0.38     0.38     0.38     0.38    0.00
 step     1 energy        -100.27004844
                                 NWChem SCF Module
                                 -----------------


                   HF | Equilibrium Geometry | CCSD/daug-cc-pVDZ



  ao basis        = "ao basis"
  functions       =    48
  atoms           =     2
  closed shells   =     5
  open shells     =     0
  charge          =   0.00
  wavefunction    = RHF 
  input vectors   = ./molecule.movecs
  output vectors  = ./molecule.movecs
  use symmetry    = T
  symmetry adapt  = T


 Forming initial guess at       1.1s


 Starting SCF solution at       1.1s



       Final RHF  results 
       ------------------ 

         Total SCF energy =   -100.033750107277
      One-electron energy =   -150.344483130264
      Two-electron energy =     45.199056883679
 Nuclear repulsion energy =      5.111676139308

        Time for solution =      0.1s


 CCSD: Non-Abelian Symmetry Not Permitted
       Symmetry has been lowered to C1
  


                   Four-Index Transformation
                   -------------------------
          Number of basis functions:             48
          Number of shells:                      19
          Number of occupied orbitals:            5
          Number of occ. correlated orbitals:     5
          Block length:                          16
          Superscript MO index range:      1 -    5
          Subscript MO index range:        1 -   48
          MO coefficients read from:  ./molecule.movecs        
          Number of operator matrices in core:   30
          Half-transformed integrals produced

     Pass:    1     Index range:    1  -    5     Time:      0.02


 ****************************************************************************
              the segmented parallel ccsd program:    8 nodes
 ****************************************************************************




 level of theory    ccsd
 number of core         0
 number of occupied     5
 number of virtual     43
 number of deleted      0
 total functions       48
 number of shells      19
 basis label          566



   ***** ccsd parameters *****
   iprt   =     0
   convi  =  0.100E-06
   maxit  =    20
   mxvec  =     5
 memory             26209836
  Using  1 OpenMP thread(s) in CCSD
  Restarting from old vector in ./molecule.t2


-------------------------------------------------------------------------
 iter     correlation     delta       rms       T2     Non-T2      Main
             energy      energy      error      ampl     ampl      Block
                                                time     time      time
-------------------------------------------------------------------------
   1     -0.2369032679 -2.369D-01  1.031D-01     0.05     0.00     0.04
   2     -0.2343515630  2.552D-03  2.685D-02     0.03     0.00     0.01
   3     -0.2364562355 -2.105D-03  1.761D-02     0.02     0.00     0.01
   4     -0.2366369314 -1.807D-04  3.355D-03     0.02     0.00     0.01
   5     -0.2368572110 -2.203D-04  3.580D-03     0.02     0.00     0.01
   6     -0.2368790748 -2.186D-05  2.949D-04     0.02     0.00     0.01
   7     -0.2368750116  4.063D-06  1.075D-04     0.02     0.00     0.01
   8     -0.2368731088  1.903D-06  1.639D-04     0.02     0.00     0.01
   9     -0.2368727802  3.287D-07  2.585D-05     0.02     0.00     0.01
  10     -0.2368727375  4.271D-08  8.793D-06     0.03     0.00     0.01
  11     -0.2368727708 -3.336D-08  1.988D-06     0.02     0.00     0.01
  12     -0.2368727626  8.231D-09  2.934D-07     0.02     0.00     0.01
  13     -0.2368727656 -2.974D-09  2.661D-07     0.03     0.00     0.01
  14     -0.2368727655  5.100D-11  9.892D-08     0.02     0.00     0.01
                  *************converged*************
-------------------------------------------------------------------------

 -----------
 CCSD Energy
 -----------
 Reference energy:            -100.033750107277001
 CCSD corr. energy:             -0.236872765507581
 Total CCSD energy:           -100.270622872784585


 --------------------------------
 Spin Component Scaled (SCS) CCSD
 --------------------------------
 Same spin contribution:                 -0.054646706693486
 Same spin scaling factor:                1.130000000000000
 Opposite spin contribution:             -0.182226058814095
 Opposite spin scaling fact.:             1.270000000000000
 SCS-CCSD correlation energy:            -0.293177873257540
 Total SCS-CCSD energy:                -100.326927980534535

 routine      calls  cpu(0)   cpu-min  cpu-ave  cpu-max   i/o 
 aoccsd          1     0.00     0.00     0.00     0.00    0.00
 iterdrv         1     0.02     0.02     0.02     0.02    0.00
 pampt          14     0.03     0.03     0.03     0.03    0.00
 t2pm           14     0.02     0.02     0.02     0.02    0.00
 sxy            14     0.03     0.03     0.04     0.07    0.00
 ints         4560     0.02     0.02     0.02     0.03    0.00
 f_write        48     0.00     0.00     0.00     0.00    0.00
 t2eri         336     0.04     0.03     0.04     0.05    0.00
 idx2          336     0.04     0.03     0.03     0.04    0.00
 idx34          14     0.01     0.01     0.01     0.01    0.00
 ht2pm          14     0.03     0.03     0.03     0.03    0.00
 itm            14     0.13     0.13     0.13     0.13    0.00
 pdiis          14     0.00     0.00     0.00     0.00    0.00
 r_read        312     0.01     0.00     0.01     0.01    0.00
 Total                 0.38     0.38     0.38     0.38    0.00
 step    -1 energy        -100.27062287
            gradient         0.028722


                         CCSD ENERGY GRADIENTS

    atom               coordinates                        gradient
                 x          y          z           x          y          z
   1 F       0.000000   0.000000   0.177482    0.000000   0.000000   0.020309
   2 H       0.000000   0.000000  -1.597335    0.000000   0.000000  -0.020309


  no constraints, skipping    0.0000000000000000     

@ Step       Energy      Delta E   Gmax     Grms     Xrms     Xmax   Walltime
@ ---- ---------------- -------- -------- -------- -------- -------- --------
@    0    -100.27038924  0.0D+00  0.02031  0.02031  0.00000  0.00000      1.6
                                                                    

  no constraints, skipping    0.0000000000000000     
  no constraints, skipping    0.0000000000000000     
  no constraints, skipping    0.0000000000000000     
                                 NWChem SCF Module
                                 -----------------


                   HF | Equilibrium Geometry | CCSD/daug-cc-pVDZ



  ao basis        = "ao basis"
  functions       =    48
  atoms           =     2
  closed shells   =     5
  open shells     =     0
  charge          =   0.00
  wavefunction    = RHF 
  input vectors   = ./molecule.movecs
  output vectors  = ./molecule.movecs
  use symmetry    = T
  symmetry adapt  = T


 Forming initial guess at       1.7s


 Starting SCF solution at       1.7s



       Final RHF  results 
       ------------------ 

         Total SCF energy =   -100.034944956109
      One-electron energy =   -150.591418043018
      Two-electron energy =     45.298050058007
 Nuclear repulsion energy =      5.258423028901

        Time for solution =      0.1s


 CCSD: Non-Abelian Symmetry Not Permitted
       Symmetry has been lowered to C1
  


                   Four-Index Transformation
                   -------------------------
          Number of basis functions:             48
          Number of shells:                      19
          Number of occupied orbitals:            5
          Number of occ. correlated orbitals:     5
          Block length:                          16
          Superscript MO index range:      1 -    5
          Subscript MO index range:        1 -   48
          MO coefficients read from:  ./molecule.movecs        
          Number of operator matrices in core:   30
          Half-transformed integrals produced

     Pass:    1     Index range:    1  -    5     Time:      0.02


 ****************************************************************************
              the segmented parallel ccsd program:    8 nodes
 ****************************************************************************




 level of theory    ccsd
 number of core         0
 number of occupied     5
 number of virtual     43
 number of deleted      0
 total functions       48
 number of shells      19
 basis label          566



   ***** ccsd parameters *****
   iprt   =     0
   convi  =  0.100E-06
   maxit  =    20
   mxvec  =     5
 memory             26210028
  Using  1 OpenMP thread(s) in CCSD
  Restarting from old vector in ./molecule.t2


-------------------------------------------------------------------------
 iter     correlation     delta       rms       T2     Non-T2      Main
             energy      energy      error      ampl     ampl      Block
                                                time     time      time
-------------------------------------------------------------------------
   1     -0.2383054563 -2.383D-01  1.032D-01     0.05     0.00     0.04
   2     -0.2322640620  6.041D-03  1.471D-02     0.02     0.00     0.01
   3     -0.2351929686 -2.929D-03  1.958D-03     0.02     0.00     0.01
   4     -0.2353123568 -1.194D-04  3.892D-03     0.03     0.00     0.01
   5     -0.2355191823 -2.068D-04  9.058D-04     0.03     0.00     0.01
   6     -0.2355650439 -4.586D-05  3.857D-04     0.03     0.00     0.01
   7     -0.2355666481 -1.604D-06  8.191D-05     0.03     0.00     0.01
   8     -0.2355655276  1.120D-06  1.474D-04     0.03     0.00     0.01
   9     -0.2355643418  1.186D-06  6.559D-05     0.02     0.00     0.01
  10     -0.2355640886  2.532D-07  1.417D-05     0.03     0.00     0.01
  11     -0.2355640797  8.832D-09  2.976D-06     0.02     0.00     0.01
  12     -0.2355641115 -3.178D-08  9.802D-07     0.03     0.00     0.01
  13     -0.2355641519 -4.037D-08  4.199D-07     0.02     0.00     0.01
  14     -0.2355641629 -1.107D-08  1.435D-07     0.03     0.00     0.01
  15     -0.2355641661 -3.107D-09  1.279D-07     0.03     0.00     0.01
  16     -0.2355641670 -9.186D-10  6.650D-08     0.02     0.00     0.01
                  *************converged*************
-------------------------------------------------------------------------

 -----------
 CCSD Energy
 -----------
 Reference energy:            -100.034944956109427
 CCSD corr. energy:             -0.235564166971682
 Total CCSD energy:           -100.270509123081112


 --------------------------------
 Spin Component Scaled (SCS) CCSD
 --------------------------------
 Same spin contribution:                 -0.054514370773709
 Same spin scaling factor:                1.130000000000000
 Opposite spin contribution:             -0.181049796197974
 Opposite spin scaling fact.:             1.270000000000000
 SCS-CCSD correlation energy:            -0.291534480145717
 Total SCS-CCSD energy:                -100.326479436255141

 routine      calls  cpu(0)   cpu-min  cpu-ave  cpu-max   i/o 
 aoccsd          1     0.00     0.00     0.00     0.00    0.00
 iterdrv         1     0.02     0.02     0.02     0.02    0.00
 pampt          16     0.03     0.03     0.03     0.03    0.00
 t2pm           16     0.02     0.02     0.02     0.02    0.00
 sxy            16     0.05     0.03     0.05     0.06    0.00
 ints         4560     0.02     0.02     0.02     0.03    0.00
 f_write        48     0.00     0.00     0.00     0.00    0.00
 t2eri         384     0.05     0.04     0.05     0.06    0.00
 idx2          384     0.04     0.04     0.04     0.04    0.00
 idx34          16     0.01     0.01     0.01     0.01    0.00
 ht2pm          16     0.03     0.03     0.03     0.03    0.00
 itm            16     0.16     0.16     0.16     0.16    0.00
 pdiis          16     0.00     0.00     0.00     0.00    0.00
 r_read        360     0.01     0.01     0.01     0.01    0.00
 Total                 0.45     0.45     0.45     0.45    0.00
 Line search: 
     step= 1.00 grad=-1.3D-03 hess= 1.2D-03 energy=   -100.270509 mode=downhill
 new step= 0.55                   predicted energy=   -100.270744
  no constraints, skipping    0.0000000000000000     
  no constraints, skipping    0.0000000000000000     
  no constraints, skipping    0.0000000000000000     

          --------
          Step   1
          --------
                         NWChem Numerical Gradients Module
                         ---------------------------------


 No. of totally-symmetric internal modes =   1

                                 NWChem SCF Module
                                 -----------------


                   HF | Equilibrium Geometry | CCSD/daug-cc-pVDZ



  ao basis        = "ao basis"
  functions       =    48
  atoms           =     2
  closed shells   =     5
  open shells     =     0
  charge          =   0.00
  wavefunction    = RHF 
  input vectors   = ./molecule.movecs
  output vectors  = ./molecule.movecs
  use symmetry    = T
  symmetry adapt  = T


 Forming initial guess at       2.3s


 Starting SCF solution at       2.3s



       Final RHF  results 
       ------------------ 

         Total SCF energy =   -100.034439098362
      One-electron energy =   -150.447317191446
      Two-electron energy =     45.240236227874
 Nuclear repulsion energy =      5.172641865209

        Time for solution =      0.1s


 CCSD: Non-Abelian Symmetry Not Permitted
       Symmetry has been lowered to C1
  


                   Four-Index Transformation
                   -------------------------
          Number of basis functions:             48
          Number of shells:                      19
          Number of occupied orbitals:            5
          Number of occ. correlated orbitals:     5
          Block length:                          16
          Superscript MO index range:      1 -    5
          Subscript MO index range:        1 -   48
          MO coefficients read from:  ./molecule.movecs        
          Number of operator matrices in core:   30
          Half-transformed integrals produced

     Pass:    1     Index range:    1  -    5     Time:      0.02


 ****************************************************************************
              the segmented parallel ccsd program:    8 nodes
 ****************************************************************************




 level of theory    ccsd
 number of core         0
 number of occupied     5
 number of virtual     43
 number of deleted      0
 total functions       48
 number of shells      19
 basis label          566



   ***** ccsd parameters *****
   iprt   =     0
   convi  =  0.100E-06
   maxit  =    20
   mxvec  =     5
 memory             26209836
  Using  1 OpenMP thread(s) in CCSD
  Restarting from old vector in ./molecule.t2


-------------------------------------------------------------------------
 iter     correlation     delta       rms       T2     Non-T2      Main
             energy      energy      error      ampl     ampl      Block
                                                time     time      time
-------------------------------------------------------------------------
   1     -0.2356148704 -2.356D-01  3.753D-02     0.05     0.00     0.04
   2     -0.2339152031  1.700D-03  7.486D-02     0.02     0.00     0.01
   3     -0.2359030468 -1.988D-03  9.070D-03     0.03     0.00     0.01
   4     -0.2361143800 -2.113D-04  8.064D-03     0.03     0.00     0.01
   5     -0.2363015506 -1.872D-04  9.160D-04     0.03     0.00     0.01
   6     -0.2363212568 -1.971D-05  2.145D-04     0.03     0.00     0.01
   7     -0.2363204472  8.096D-07  7.474D-05     0.02     0.00     0.01
   8     -0.2363193503  1.097D-06  5.942D-05     0.02     0.00     0.01
   9     -0.2363192126  1.378D-07  1.338D-05     0.03     0.00     0.01
  10     -0.2363192862 -7.366D-08  8.410D-06     0.03     0.00     0.01
  11     -0.2363193012 -1.495D-08  7.635D-07     0.03     0.00     0.01
  12     -0.2363192992  1.966D-09  9.752D-08     0.02     0.00     0.01
                  *************converged*************
-------------------------------------------------------------------------

 -----------
 CCSD Energy
 -----------
 Reference energy:            -100.034439098362469
 CCSD corr. energy:             -0.236319299214307
 Total CCSD energy:           -100.270758397576770


 --------------------------------
 Spin Component Scaled (SCS) CCSD
 --------------------------------
 Same spin contribution:                 -0.054591901725337
 Same spin scaling factor:                1.130000000000000
 Opposite spin contribution:             -0.181727397488970
 Opposite spin scaling fact.:             1.270000000000000
 SCS-CCSD correlation energy:            -0.292482643760623
 Total SCS-CCSD energy:                -100.326921742123091

 routine      calls  cpu(0)   cpu-min  cpu-ave  cpu-max   i/o 
 aoccsd          1     0.00     0.00     0.00     0.00    0.00
 iterdrv         1     0.02     0.02     0.02     0.02    0.00
 pampt          12     0.02     0.02     0.02     0.02    0.00
 t2pm           12     0.02     0.02     0.02     0.02    0.00
 sxy            12     0.03     0.03     0.04     0.05    0.00
 ints         4560     0.03     0.02     0.02     0.03    0.00
 f_write        48     0.00     0.00     0.00     0.00    0.00
 t2eri         288     0.04     0.03     0.04     0.04    0.00
 idx2          288     0.03     0.03     0.03     0.03    0.00
 idx34          12     0.01     0.00     0.01     0.01    0.00
 ht2pm          12     0.03     0.03     0.03     0.03    0.00
 itm            12     0.12     0.12     0.12     0.12    0.00
 pdiis          12     0.00     0.00     0.00     0.00    0.00
 r_read        264     0.01     0.00     0.01     0.01    0.00
 Total                 0.35     0.35     0.35     0.35    0.00
 Reference energy        -100.27075840

 Finite difference step  1.00000D-02
 Use five point formula F

                                 NWChem SCF Module
                                 -----------------


                   HF | Equilibrium Geometry | CCSD/daug-cc-pVDZ



  ao basis        = "ao basis"
  functions       =    48
  atoms           =     2
  closed shells   =     5
  open shells     =     0
  charge          =   0.00
  wavefunction    = RHF 
  input vectors   = ./molecule.movecs
  output vectors  = ./molecule.movecs
  use symmetry    = T
  symmetry adapt  = T


 Forming initial guess at       2.7s


 Starting SCF solution at       2.7s



       Final RHF  results 
       ------------------ 

         Total SCF energy =   -100.033997175737
      One-electron energy =   -150.377009802113
      Two-electron energy =     45.212075136695
 Nuclear repulsion energy =      5.130937489681

        Time for solution =      0.1s


 CCSD: Non-Abelian Symmetry Not Permitted
       Symmetry has been lowered to C1
  


                   Four-Index Transformation
                   -------------------------
          Number of basis functions:             48
          Number of shells:                      19
          Number of occupied orbitals:            5
          Number of occ. correlated orbitals:     5
          Block length:                          16
          Superscript MO index range:      1 -    5
          Subscript MO index range:        1 -   48
          MO coefficients read from:  ./molecule.movecs        
          Number of operator matrices in core:   30
          Half-transformed integrals produced

     Pass:    1     Index range:    1  -    5     Time:      0.02


 ****************************************************************************
              the segmented parallel ccsd program:    8 nodes
 ****************************************************************************




 level of theory    ccsd
 number of core         0
 number of occupied     5
 number of virtual     43
 number of deleted      0
 total functions       48
 number of shells      19
 basis label          566



   ***** ccsd parameters *****
   iprt   =     0
   convi  =  0.100E-06
   maxit  =    20
   mxvec  =     5
 memory             26209836
  Using  1 OpenMP thread(s) in CCSD
  Restarting from old vector in ./molecule.t2


-------------------------------------------------------------------------
 iter     correlation     delta       rms       T2     Non-T2      Main
             energy      energy      error      ampl     ampl      Block
                                                time     time      time
-------------------------------------------------------------------------
   1     -0.2350915682 -2.351D-01  1.189D-01     0.05     0.00     0.04
   2     -0.2335459529  1.546D-03  4.364D-02     0.02     0.00     0.01
   3     -0.2360943171 -2.548D-03  1.041D-02     0.03     0.00     0.01
   4     -0.2364356595 -3.413D-04  7.638D-04     0.03     0.00     0.01
   5     -0.2366676034 -2.319D-04  1.514D-03     0.02     0.00     0.01
   6     -0.2367010496 -3.345D-05  3.506D-04     0.02     0.00     0.01
   7     -0.2366989081  2.141D-06  1.320D-04     0.02     0.00     0.01
   8     -0.2366973985  1.510D-06  2.271D-04     0.03     0.00     0.01
   9     -0.2366965435  8.550D-07  6.199D-05     0.03     0.00     0.01
  10     -0.2366962544  2.891D-07  1.328D-05     0.02     0.00     0.01
  11     -0.2366963001 -4.570D-08  1.189D-06     0.02     0.00     0.01
  12     -0.2366963153 -1.522D-08  4.614D-07     0.02     0.00     0.01
  13     -0.2366963554 -4.010D-08  3.565D-07     0.03     0.00     0.01
  14     -0.2366963676 -1.216D-08  4.223D-07     0.02     0.00     0.01
  15     -0.2366963713 -3.738D-09  1.161D-07     0.02     0.00     0.01
  16     -0.2366963722 -9.174D-10  9.647D-08     0.02     0.00     0.01
                  *************converged*************
-------------------------------------------------------------------------

 -----------
 CCSD Energy
 -----------
 Reference energy:            -100.033997175736872
 CCSD corr. energy:             -0.236696372224523
 Total CCSD energy:           -100.270693547961400


 --------------------------------
 Spin Component Scaled (SCS) CCSD
 --------------------------------
 Same spin contribution:                 -0.054629426869217
 Same spin scaling factor:                1.130000000000000
 Opposite spin contribution:             -0.182066945355306
 Opposite spin scaling fact.:             1.270000000000000
 SCS-CCSD correlation energy:            -0.292956272963454
 Total SCS-CCSD energy:                -100.326953448700323

 routine      calls  cpu(0)   cpu-min  cpu-ave  cpu-max   i/o 
 aoccsd          1     0.00     0.00     0.00     0.00    0.00
 iterdrv         1     0.02     0.02     0.02     0.02    0.00
 pampt          16     0.03     0.03     0.03     0.03    0.00
 t2pm           16     0.02     0.02     0.02     0.02    0.00
 sxy            16     0.03     0.03     0.05     0.07    0.00
 ints         4560     0.03     0.02     0.02     0.03    0.00
 f_write        48     0.00     0.00     0.00     0.00    0.00
 t2eri         384     0.05     0.04     0.05     0.05    0.00
 idx2          384     0.04     0.03     0.04     0.04    0.00
 idx34          16     0.01     0.01     0.01     0.01    0.00
 ht2pm          16     0.03     0.03     0.03     0.03    0.00
 itm            16     0.15     0.15     0.15     0.15    0.00
 pdiis          16     0.00     0.00     0.00     0.00    0.00
 r_read        360     0.01     0.01     0.01     0.01    0.00
 Total                 0.44     0.43     0.44     0.44    0.00
 step     1 energy        -100.27069355
                                 NWChem SCF Module
                                 -----------------


                   HF | Equilibrium Geometry | CCSD/daug-cc-pVDZ



  ao basis        = "ao basis"
  functions       =    48
  atoms           =     2
  closed shells   =     5
  open shells     =     0
  charge          =   0.00
  wavefunction    = RHF 
  input vectors   = ./molecule.movecs
  output vectors  = ./molecule.movecs
  use symmetry    = T
  symmetry adapt  = T


 Forming initial guess at       3.3s


 Starting SCF solution at       3.3s



       Final RHF  results 
       ------------------ 

         Total SCF energy =   -100.034757147920
      One-electron energy =   -150.518610590977
      Two-electron energy =     45.268823698579
 Nuclear repulsion energy =      5.215029744479

        Time for solution =      0.1s


 CCSD: Non-Abelian Symmetry Not Permitted
       Symmetry has been lowered to C1
  


                   Four-Index Transformation
                   -------------------------
          Number of basis functions:             48
          Number of shells:                      19
          Number of occupied orbitals:            5
          Number of occ. correlated orbitals:     5
          Block length:                          16
          Superscript MO index range:      1 -    5
          Subscript MO index range:        1 -   48
          MO coefficients read from:  ./molecule.movecs        
          Number of operator matrices in core:   30
          Half-transformed integrals produced

     Pass:    1     Index range:    1  -    5     Time:      0.02


 ****************************************************************************
              the segmented parallel ccsd program:    8 nodes
 ****************************************************************************




 level of theory    ccsd
 number of core         0
 number of occupied     5
 number of virtual     43
 number of deleted      0
 total functions       48
 number of shells      19
 basis label          566



   ***** ccsd parameters *****
   iprt   =     0
   convi  =  0.100E-06
   maxit  =    20
   mxvec  =     5
 memory             26209836
  Using  1 OpenMP thread(s) in CCSD
  Restarting from old vector in ./molecule.t2


-------------------------------------------------------------------------
 iter     correlation     delta       rms       T2     Non-T2      Main
             energy      energy      error      ampl     ampl      Block
                                                time     time      time
-------------------------------------------------------------------------
   1     -0.2397742523 -2.398D-01  1.127D-01     0.06     0.00     0.04
   2     -0.2333215753  6.453D-03  1.059D-01     0.03     0.00     0.01
   3     -0.2358714045 -2.550D-03  2.374D-02     0.02     0.00     0.01
   4     -0.2357437099  1.277D-04  8.796D-03     0.02     0.00     0.01
   5     -0.2359113963 -1.677D-04  2.359D-03     0.02     0.00     0.01
   6     -0.2359439647 -3.257D-05  8.489D-04     0.02     0.00     0.01
   7     -0.2359444636 -4.989D-07  2.215D-04     0.02     0.00     0.01
   8     -0.2359430617  1.402D-06  2.085D-05     0.02     0.00     0.01
   9     -0.2359428281  2.337D-07  6.615D-06     0.03     0.00     0.01
  10     -0.2359428054  2.269D-08  2.562D-07     0.02     0.00     0.01
  11     -0.2359427606  4.475D-08  1.880D-06     0.03     0.00     0.01
  12     -0.2359427597  9.805D-10  2.951D-07     0.02     0.00     0.01
  13     -0.2359427621 -2.470D-09  4.856D-07     0.03     0.00     0.01
  14     -0.2359427620  1.610D-10  1.766D-08     0.02     0.00     0.01
                  *************converged*************
-------------------------------------------------------------------------

 -----------
 CCSD Energy
 -----------
 Reference energy:            -100.034757147919578
 CCSD corr. energy:             -0.235942761970165
 Total CCSD energy:           -100.270699909889743


 --------------------------------
 Spin Component Scaled (SCS) CCSD
 --------------------------------
 Same spin contribution:                 -0.054553634396376
 Same spin scaling factor:                1.130000000000000
 Opposite spin contribution:             -0.181389127573789
 Opposite spin scaling fact.:             1.270000000000000
 SCS-CCSD correlation energy:            -0.292009798886617
 Total SCS-CCSD energy:                -100.326766946806202

 routine      calls  cpu(0)   cpu-min  cpu-ave  cpu-max   i/o 
 aoccsd          1     0.00     0.00     0.00     0.00    0.00
 iterdrv         1     0.02     0.02     0.02     0.02    0.00
 pampt          14     0.03     0.03     0.03     0.03    0.00
 t2pm           14     0.02     0.02     0.02     0.02    0.00
 sxy            14     0.05     0.02     0.05     0.06    0.00
 ints         4560     0.02     0.02     0.02     0.03    0.00
 f_write        48     0.00     0.00     0.00     0.00    0.00
 t2eri         336     0.04     0.04     0.04     0.05    0.00
 idx2          336     0.03     0.03     0.03     0.04    0.00
 idx34          14     0.01     0.01     0.01     0.01    0.00
 ht2pm          14     0.03     0.03     0.03     0.03    0.00
 itm            14     0.13     0.13     0.13     0.13    0.00
 pdiis          14     0.00     0.00     0.00     0.00    0.00
 r_read        312     0.01     0.00     0.01     0.01    0.00
 Total                 0.39     0.39     0.39     0.39    0.00
 step    -1 energy        -100.27069991
            gradient         0.000318


                         CCSD ENERGY GRADIENTS

    atom               coordinates                        gradient
                 x          y          z           x          y          z
   1 F       0.000000   0.000000   0.160035    0.000000   0.000000   0.000225
   2 H       0.000000   0.000000  -1.579888    0.000000   0.000000  -0.000225


  no constraints, skipping    0.0000000000000000     

  Step       Energy      Delta E   Gmax     Grms     Xrms     Xmax   Walltime
  ---- ---------------- -------- -------- -------- -------- -------- --------
@    1    -100.27075840 -3.7D-04  0.00022  0.00022  0.01007  0.01745      3.8
                                     ok       ok                    

  no constraints, skipping    0.0000000000000000     
  no constraints, skipping    0.0000000000000000     
  no constraints, skipping    0.0000000000000000     
                                 NWChem SCF Module
                                 -----------------


                   HF | Equilibrium Geometry | CCSD/daug-cc-pVDZ



  ao basis        = "ao basis"
  functions       =    48
  atoms           =     2
  closed shells   =     5
  open shells     =     0
  charge          =   0.00
  wavefunction    = RHF 
  input vectors   = ./molecule.movecs
  output vectors  = ./molecule.movecs
  use symmetry    = T
  symmetry adapt  = T


 Forming initial guess at       3.8s


 Starting SCF solution at       3.8s



       Final RHF  results 
       ------------------ 

         Total SCF energy =   -100.034449583300
      One-electron energy =   -150.449274376638
      Two-electron energy =     45.241020912762
 Nuclear repulsion energy =      5.173803880576

        Time for solution =      0.0s


 CCSD: Non-Abelian Symmetry Not Permitted
       Symmetry has been lowered to C1
  


                   Four-Index Transformation
                   -------------------------
          Number of basis functions:             48
          Number of shells:                      19
          Number of occupied orbitals:            5
          Number of occ. correlated orbitals:     5
          Block length:                          16
          Superscript MO index range:      1 -    5
          Subscript MO index range:        1 -   48
          MO coefficients read from:  ./molecule.movecs        
          Number of operator matrices in core:   30
          Half-transformed integrals produced

     Pass:    1     Index range:    1  -    5     Time:      0.02


 ****************************************************************************
              the segmented parallel ccsd program:    8 nodes
 ****************************************************************************




 level of theory    ccsd
 number of core         0
 number of occupied     5
 number of virtual     43
 number of deleted      0
 total functions       48
 number of shells      19
 basis label          566



   ***** ccsd parameters *****
   iprt   =     0
   convi  =  0.100E-06
   maxit  =    20
   mxvec  =     5
 memory             26210028
  Using  1 OpenMP thread(s) in CCSD
  Restarting from old vector in ./molecule.t2


-------------------------------------------------------------------------
 iter     correlation     delta       rms       T2     Non-T2      Main
             energy      energy      error      ampl     ampl      Block
                                                time     time      time
-------------------------------------------------------------------------
   1     -0.2390852934 -2.391D-01  9.120D-02     0.06     0.00     0.04
   2     -0.2344401305  4.645D-03  1.007D-01     0.03     0.00     0.01
   3     -0.2362877875 -1.848D-03  2.436D-02     0.03     0.00     0.01
   4     -0.2361848114  1.030D-04  5.915D-03     0.03     0.00     0.01
   5     -0.2362900977 -1.053D-04  3.913D-04     0.02     0.00     0.01
   6     -0.2363081255 -1.803D-05  1.562D-04     0.03     0.00     0.01
   7     -0.2363096595 -1.534D-06  6.676D-05     0.02     0.00     0.01
   8     -0.2363091512  5.083D-07  3.566D-05     0.03     0.00     0.01
   9     -0.2363089151  2.362D-07  1.517D-05     0.02     0.00     0.01
  10     -0.2363088910  2.411D-08  2.307D-06     0.02     0.00     0.01
  11     -0.2363088962 -5.227D-09  6.140D-07     0.03     0.00     0.01
  12     -0.2363088858  1.036D-08  1.771D-07     0.02     0.00     0.01
  13     -0.2363088901 -4.308D-09  5.563D-08     0.02     0.00     0.01
                  *************converged*************
-------------------------------------------------------------------------

 -----------
 CCSD Energy
 -----------
 Reference energy:            -100.034449583299704
 CCSD corr. energy:             -0.236308890140483
 Total CCSD energy:           -100.270758473440182


 --------------------------------
 Spin Component Scaled (SCS) CCSD
 --------------------------------
 Same spin contribution:                 -0.054590853380937
 Same spin scaling factor:                1.130000000000000
 Opposite spin contribution:             -0.181718036759546
 Opposite spin scaling fact.:             1.270000000000000
 SCS-CCSD correlation energy:            -0.292469571005082
 Total SCS-CCSD energy:                -100.326919154304790

 routine      calls  cpu(0)   cpu-min  cpu-ave  cpu-max   i/o 
 aoccsd          1     0.00     0.00     0.00     0.00    0.00
 iterdrv         1     0.02     0.02     0.02     0.02    0.00
 pampt          13     0.02     0.02     0.02     0.02    0.00
 t2pm           13     0.02     0.02     0.02     0.02    0.00
 sxy            13     0.03     0.03     0.04     0.06    0.00
 ints         4560     0.02     0.02     0.02     0.03    0.00
 f_write        48     0.00     0.00     0.00     0.00    0.00
 t2eri         312     0.04     0.03     0.04     0.04    0.00
 idx2          312     0.03     0.03     0.03     0.03    0.00
 idx34          13     0.01     0.01     0.01     0.01    0.00
 ht2pm          13     0.03     0.03     0.03     0.03    0.00
 itm            13     0.13     0.13     0.13     0.13    0.00
 pdiis          13     0.00     0.00     0.00     0.00    0.00
 r_read        288     0.01     0.00     0.01     0.01    0.00
 Total                 0.36     0.36     0.36     0.36    0.00
 Line search: 
     step= 1.00 grad=-8.8D-08 hess= 1.2D-08 energy=   -100.270758 mode=accept  
 new step= 1.00                   predicted energy=   -100.270758
  no constraints, skipping    0.0000000000000000     
  no constraints, skipping    0.0000000000000000     
  no constraints, skipping    0.0000000000000000     

          --------
          Step   2
          --------
                         NWChem Numerical Gradients Module
                         ---------------------------------


 No. of totally-symmetric internal modes =   1

                                 NWChem SCF Module
                                 -----------------


                   HF | Equilibrium Geometry | CCSD/daug-cc-pVDZ



  ao basis        = "ao basis"
  functions       =    48
  atoms           =     2
  closed shells   =     5
  open shells     =     0
  charge          =   0.00
  wavefunction    = RHF 
  input vectors   = ./molecule.movecs
  output vectors  = ./molecule.movecs
  use symmetry    = T
  symmetry adapt  = T


  The SCF is already converged 

         Total SCF energy =   -100.034449583300

 CCSD: Non-Abelian Symmetry Not Permitted
       Symmetry has been lowered to C1
  


                   Four-Index Transformation
                   -------------------------
          Number of basis functions:             48
          Number of shells:                      19
          Number of occupied orbitals:            5
          Number of occ. correlated orbitals:     5
          Block length:                          16
          Superscript MO index range:      1 -    5
          Subscript MO index range:        1 -   48
          MO coefficients read from:  ./molecule.movecs        
          Number of operator matrices in core:   30
          Half-transformed integrals produced

     Pass:    1     Index range:    1  -    5     Time:      0.02


 ****************************************************************************
              the segmented parallel ccsd program:    8 nodes
 ****************************************************************************




 level of theory    ccsd
 number of core         0
 number of occupied     5
 number of virtual     43
 number of deleted      0
 total functions       48
 number of shells      19
 basis label          566



   ***** ccsd parameters *****
   iprt   =     0
   convi  =  0.100E-06
   maxit  =    20
   mxvec  =     5
 memory             26209836
  Using  1 OpenMP thread(s) in CCSD
  Restarting from old vector in ./molecule.t2


-------------------------------------------------------------------------
 iter     correlation     delta       rms       T2     Non-T2      Main
             energy      energy      error      ampl     ampl      Block
                                                time     time      time
-------------------------------------------------------------------------
   1     -0.2363088896 -2.363D-01  6.856D-08     0.05     0.00     0.03
   2     -0.2363088896 -1.666D-11  9.197D-09     0.02     0.00     0.01
                  *************converged*************
-------------------------------------------------------------------------

 -----------
 CCSD Energy
 -----------
 Reference energy:            -100.034449583299704
 CCSD corr. energy:             -0.236308889607780
 Total CCSD energy:           -100.270758472907488


 --------------------------------
 Spin Component Scaled (SCS) CCSD
 --------------------------------
 Same spin contribution:                 -0.054590852647143
 Same spin scaling factor:                1.130000000000000
 Opposite spin contribution:             -0.181718036960636
 Opposite spin scaling fact.:             1.270000000000000
 SCS-CCSD correlation energy:            -0.292469570431280
 Total SCS-CCSD energy:                -100.326919153730984

 routine      calls  cpu(0)   cpu-min  cpu-ave  cpu-max   i/o 
 aoccsd          1     0.00     0.00     0.00     0.00    0.00
 iterdrv         1     0.01     0.01     0.01     0.01    0.00
 pampt           2     0.00     0.00     0.00     0.00    0.00
 t2pm            2     0.00     0.00     0.00     0.00    0.00
 sxy             2     0.00     0.00     0.01     0.01    0.00
 ints         4560     0.02     0.02     0.02     0.03    0.00
 f_write        48     0.00     0.00     0.00     0.00    0.00
 t2eri          48     0.01     0.00     0.01     0.01    0.00
 idx2           48     0.00     0.00     0.00     0.00    0.00
 idx34           2     0.00     0.00     0.00     0.00    0.00
 ht2pm           2     0.00     0.00     0.00     0.00    0.00
 itm             2     0.02     0.02     0.02     0.02    0.00
 pdiis           2     0.00     0.00     0.00     0.00    0.00
 r_read         24     0.00     0.00     0.00     0.00    0.00
 Total                 0.08     0.08     0.08     0.08    0.00
 Reference energy        -100.27075847

 Finite difference step  1.00000D-02
 Use five point formula F

                                 NWChem SCF Module
                                 -----------------


                   HF | Equilibrium Geometry | CCSD/daug-cc-pVDZ



  ao basis        = "ao basis"
  functions       =    48
  atoms           =     2
  closed shells   =     5
  open shells     =     0
  charge          =   0.00
  wavefunction    = RHF 
  input vectors   = ./molecule.movecs
  output vectors  = ./molecule.movecs
  use symmetry    = T
  symmetry adapt  = T


 Forming initial guess at       4.4s


 Starting SCF solution at       4.4s



       Final RHF  results 
       ------------------ 

         Total SCF energy =   -100.034010989913
      One-electron energy =   -150.378939497733
      Two-electron energy =     45.212847666783
 Nuclear repulsion energy =      5.132080841037

        Time for solution =      0.1s


 CCSD: Non-Abelian Symmetry Not Permitted
       Symmetry has been lowered to C1
  


                   Four-Index Transformation
                   -------------------------
          Number of basis functions:             48
          Number of shells:                      19
          Number of occupied orbitals:            5
          Number of occ. correlated orbitals:     5
          Block length:                          16
          Superscript MO index range:      1 -    5
          Subscript MO index range:        1 -   48
          MO coefficients read from:  ./molecule.movecs        
          Number of operator matrices in core:   30
          Half-transformed integrals produced

     Pass:    1     Index range:    1  -    5     Time:      0.02


 ****************************************************************************
              the segmented parallel ccsd program:    8 nodes
 ****************************************************************************




 level of theory    ccsd
 number of core         0
 number of occupied     5
 number of virtual     43
 number of deleted      0
 total functions       48
 number of shells      19
 basis label          566



   ***** ccsd parameters *****
   iprt   =     0
   convi  =  0.100E-06
   maxit  =    20
   mxvec  =     5
 memory             26209836
  Using  1 OpenMP thread(s) in CCSD
  Restarting from old vector in ./molecule.t2


-------------------------------------------------------------------------
 iter     correlation     delta       rms       T2     Non-T2      Main
             energy      energy      error      ampl     ampl      Block
                                                time     time      time
-------------------------------------------------------------------------
   1     -0.2366072604 -2.366D-01  1.066D-01     0.05     0.00     0.04
   2     -0.2339019021  2.705D-03  1.571D-02     0.02     0.00     0.01
   3     -0.2360368312 -2.135D-03  9.588D-03     0.02     0.00     0.01
   4     -0.2364394909 -4.027D-04  2.585D-03     0.02     0.00     0.01
   5     -0.2366645200 -2.250D-04  1.477D-03     0.03     0.00     0.01
   6     -0.2366917061 -2.719D-05  2.735D-04     0.02     0.00     0.01
   7     -0.2366888243  2.882D-06  9.779D-05     0.02     0.00     0.01
   8     -0.2366869488  1.876D-06  2.488D-04     0.02     0.00     0.01
   9     -0.2366860355  9.133D-07  5.612D-05     0.03     0.00     0.01
  10     -0.2366858007  2.347D-07  2.494D-05     0.02     0.00     0.01
  11     -0.2366858517 -5.097D-08  2.333D-06     0.02     0.00     0.01
  12     -0.2366858901 -3.843D-08  5.449D-07     0.03     0.00     0.01
  13     -0.2366859330 -4.283D-08  3.432D-07     0.02     0.00     0.01
  14     -0.2366859437 -1.077D-08  3.740D-07     0.02     0.00     0.01
  15     -0.2366859460 -2.238D-09  1.425D-07     0.03     0.00     0.01
  16     -0.2366859461 -9.839D-11  1.331D-07     0.02     0.00     0.01
  17     -0.2366859457  3.698D-10  2.968D-08     0.02     0.00     0.01
                  *************converged*************
-------------------------------------------------------------------------

 -----------
 CCSD Energy
 -----------
 Reference energy:            -100.034010989912815
 CCSD corr. energy:             -0.236685945710287
 Total CCSD energy:           -100.270696935623107


 --------------------------------
 Spin Component Scaled (SCS) CCSD
 --------------------------------
 Same spin contribution:                 -0.054628400330568
 Same spin scaling factor:                1.130000000000000
 Opposite spin contribution:             -0.182057545379720
 Opposite spin scaling fact.:             1.270000000000000
 SCS-CCSD correlation energy:            -0.292943175005785
 Total SCS-CCSD energy:                -100.326954164918604

 routine      calls  cpu(0)   cpu-min  cpu-ave  cpu-max   i/o 
 aoccsd          1     0.00     0.00     0.00     0.00    0.00
 iterdrv         1     0.02     0.02     0.02     0.02    0.00
 pampt          17     0.03     0.03     0.03     0.03    0.00
 t2pm           17     0.03     0.03     0.03     0.03    0.00
 sxy            17     0.05     0.04     0.05     0.07    0.00
 ints         4560     0.03     0.02     0.02     0.03    0.00
 f_write        48     0.00     0.00     0.00     0.00    0.00
 t2eri         408     0.05     0.04     0.05     0.05    0.00
 idx2          408     0.04     0.03     0.04     0.04    0.00
 idx34          17     0.01     0.01     0.01     0.01    0.00
 ht2pm          17     0.04     0.04     0.04     0.04    0.00
 itm            17     0.17     0.17     0.17     0.17    0.00
 pdiis          17     0.00     0.00     0.00     0.00    0.00
 r_read        384     0.01     0.01     0.01     0.01    0.00
 Total                 0.46     0.46     0.46     0.46    0.00
 step     1 energy        -100.27069694
                                 NWChem SCF Module
                                 -----------------


                   HF | Equilibrium Geometry | CCSD/daug-cc-pVDZ



  ao basis        = "ao basis"
  functions       =    48
  atoms           =     2
  closed shells   =     5
  open shells     =     0
  charge          =   0.00
  wavefunction    = RHF 
  input vectors   = ./molecule.movecs
  output vectors  = ./molecule.movecs
  use symmetry    = T
  symmetry adapt  = T


 Forming initial guess at       5.0s


 Starting SCF solution at       5.0s



       Final RHF  results 
       ------------------ 

         Total SCF energy =   -100.034764109368
      One-electron energy =   -150.520594739501
      Two-electron energy =     45.269619745512
 Nuclear repulsion energy =      5.216210884621

        Time for solution =      0.1s


 CCSD: Non-Abelian Symmetry Not Permitted
       Symmetry has been lowered to C1
  


                   Four-Index Transformation
                   -------------------------
          Number of basis functions:             48
          Number of shells:                      19
          Number of occupied orbitals:            5
          Number of occ. correlated orbitals:     5
          Block length:                          16
          Superscript MO index range:      1 -    5
          Subscript MO index range:        1 -   48
          MO coefficients read from:  ./molecule.movecs        
          Number of operator matrices in core:   30
          Half-transformed integrals produced

     Pass:    1     Index range:    1  -    5     Time:      0.02


 ****************************************************************************
              the segmented parallel ccsd program:    8 nodes
 ****************************************************************************




 level of theory    ccsd
 number of core         0
 number of occupied     5
 number of virtual     43
 number of deleted      0
 total functions       48
 number of shells      19
 basis label          566



   ***** ccsd parameters *****
   iprt   =     0
   convi  =  0.100E-06
   maxit  =    20
   mxvec  =     5
 memory             26209836
  Using  1 OpenMP thread(s) in CCSD
  Restarting from old vector in ./molecule.t2


-------------------------------------------------------------------------
 iter     correlation     delta       rms       T2     Non-T2      Main
             energy      energy      error      ampl     ampl      Block
                                                time     time      time
-------------------------------------------------------------------------
   1     -0.2363381483 -2.363D-01  8.521D-02     0.06     0.00     0.04
   2     -0.2337812201  2.557D-03  3.390D-02     0.02     0.00     0.01
   3     -0.2353392738 -1.558D-03  1.598D-02     0.02     0.00     0.01
   4     -0.2357048719 -3.656D-04  5.692D-03     0.02     0.00     0.01
   5     -0.2359254658 -2.206D-04  3.118D-03     0.02     0.00     0.01
   6     -0.2359380907 -1.262D-05  1.488D-04     0.02     0.00     0.01
   7     -0.2359341378  3.953D-06  1.026D-04     0.03     0.00     0.01
   8     -0.2359325148  1.623D-06  1.487D-04     0.02     0.00     0.01
   9     -0.2359324401  7.474D-08  1.320D-05     0.04     0.00     0.01
  10     -0.2359323678  7.226D-08  8.974D-06     0.03     0.00     0.01
  11     -0.2359323818 -1.399D-08  3.370D-07     0.02     0.00     0.01
  12     -0.2359323685  1.331D-08  2.941D-07     0.02     0.00     0.01
  13     -0.2359323672  1.273D-09  1.107D-07     0.02     0.00     0.01
  14     -0.2359323664  8.651D-10  9.970D-08     0.02     0.00     0.01
                  *************converged*************
-------------------------------------------------------------------------

 -----------
 CCSD Energy
 -----------
 Reference energy:            -100.034764109368282
 CCSD corr. energy:             -0.235932366375692
 Total CCSD energy:           -100.270696475743975


 --------------------------------
 Spin Component Scaled (SCS) CCSD
 --------------------------------
 Same spin contribution:                 -0.054552566693126
 Same spin scaling factor:                1.130000000000000
 Opposite spin contribution:             -0.181379799682565
 Opposite spin scaling fact.:             1.270000000000000
 SCS-CCSD correlation energy:            -0.291996745960091
 Total SCS-CCSD energy:                -100.326760855328374

 routine      calls  cpu(0)   cpu-min  cpu-ave  cpu-max   i/o 
 aoccsd          1     0.00     0.00     0.00     0.00    0.00
 iterdrv         1     0.02     0.02     0.02     0.02    0.00
 pampt          14     0.03     0.03     0.03     0.03    0.00
 t2pm           14     0.02     0.02     0.02     0.02    0.00
 sxy            14     0.03     0.03     0.04     0.06    0.00
 ints         4560     0.02     0.02     0.02     0.03    0.00
 f_write        48     0.00     0.00     0.00     0.00    0.00
 t2eri         336     0.04     0.04     0.04     0.05    0.00
 idx2          336     0.04     0.03     0.03     0.04    0.00
 idx34          14     0.01     0.01     0.01     0.01    0.00
 ht2pm          14     0.03     0.03     0.03     0.03    0.00
 itm            14     0.15     0.15     0.15     0.15    0.00
 pdiis          14     0.00     0.00     0.00     0.00    0.00
 r_read        312     0.01     0.00     0.01     0.01    0.00
 Total                 0.41     0.41     0.41     0.41    0.00
 step    -1 energy        -100.27069648
            gradient        -0.000023


                         CCSD ENERGY GRADIENTS

    atom               coordinates                        gradient
                 x          y          z           x          y          z
   1 F       0.000000   0.000000   0.159839    0.000000   0.000000  -0.000016
   2 H       0.000000   0.000000  -1.579693    0.000000   0.000000   0.000016


  no constraints, skipping    0.0000000000000000     

  Step       Energy      Delta E   Gmax     Grms     Xrms     Xmax   Walltime
  ---- ---------------- -------- -------- -------- -------- -------- --------
@    2    -100.27075847 -7.5D-08  0.00002  0.00002  0.00011  0.00020      5.5
                                     ok       ok       ok       ok  


      ----------------------
      Optimization converged
      ----------------------


  Step       Energy      Delta E   Gmax     Grms     Xrms     Xmax   Walltime
  ---- ---------------- -------- -------- -------- -------- -------- --------
@    2    -100.27075847 -7.5D-08  0.00002  0.00002  0.00011  0.00020      5.5
                                     ok       ok       ok       ok  



                         Geometry "geometry" -> "geometry"
                         ---------------------------------

 Output coordinates in angstroms (scale by  1.889725989 to convert to a.u.)

  No.       Tag          Charge          X              Y              Z
 ---- ---------------- ---------- -------------- -------------- --------------
    1 F                    9.0000     0.00000000     0.00000000     0.08458339
    2 H                    1.0000     0.00000000     0.00000000    -0.83593764

      Atomic Mass 
      ----------- 

      F                 18.998400
      H                  1.007825


 Effective nuclear repulsion energy (a.u.)       5.1738038806

            Nuclear Dipole moment (a.u.) 
            ----------------------------
        X                 Y               Z
 ---------------- ---------------- ----------------
     0.0000000000     0.0000000000    -0.1411382391

      Symmetry information
      --------------------

 Group name             C4v       
 Group number             18
 Group order               8
 No. of unique centers     2

      Symmetry unique atoms

     1    2


                Final and change from initial internal coordinates
                --------------------------------------------------



                                Z-matrix (autoz)
                                -------- 

 Units are Angstrom for bonds and degrees for angles

      Type          Name      I     J     K     L     M      Value       Change
      ----------- --------  ----- ----- ----- ----- ----- ---------- ----------
    1 Stretch                  1     2                       0.92052   -0.01867



                                NWChem Input Module
                                -------------------




                                     CITATION
                                     --------
                Please cite the following reference when publishing
                           results obtained with NWChem:

          E. Apr, E. J. Bylaska, W. A. de Jong, N. Govind, K. Kowalski,
       T. P. Straatsma, M. Valiev, H. J. J. van Dam, Y. Alexeev, J. Anchell,
       V. Anisimov, F. W. Aquino, R. Atta-Fynn, J. Autschbach, N. P. Bauman,
     J. C. Becca, D. E. Bernholdt, K. Bhaskaran-Nair, S. Bogatko, P. Borowski,
        J. Boschen, J. Brabec, A. Bruner, E. Caut, Y. Chen, G. N. Chuev,
      C. J. Cramer, J. Daily, M. J. O. Deegan, T. H. Dunning Jr., M. Dupuis,
   K. G. Dyall, G. I. Fann, S. A. Fischer, A. Fonari, H. Frchtl, L. Gagliardi,
      J. Garza, N. Gawande, S. Ghosh, K. Glaesemann, A. W. Gtz, J. Hammond,
       V. Helms, E. D. Hermes, K. Hirao, S. Hirata, M. Jacquelin, L. Jensen,
   B. G. Johnson, H. Jnsson, R. A. Kendall, M. Klemm, R. Kobayashi, V. Konkov,
      S. Krishnamoorthy, M. Krishnan, Z. Lin, R. D. Lins, R. J. Littlefield,
      A. J. Logsdail, K. Lopata, W. Ma, A. V. Marenich, J. Martin del Campo,
   D. Mejia-Rodriguez, J. E. Moore, J. M. Mullin, T. Nakajima, D. R. Nascimento,
    J. A. Nichols, P. J. Nichols, J. Nieplocha, A. Otero-de-la-Roza, B. Palmer,
    A. Panyala, T. Pirojsirikul, B. Peng, R. Peverati, J. Pittner, L. Pollack,
   R. M. Richard, P. Sadayappan, G. C. Schatz, W. A. Shelton, D. W. Silverstein,
   D. M. A. Smith, T. A. Soares, D. Song, M. Swart, H. L. Taylor, G. S. Thomas,
            V. Tipparaju, D. G. Truhlar, K. Tsemekhman, T. Van Voorhis,
     . Vzquez-Mayagoitia, P. Verma, O. Villa, A. Vishnu, K. D. Vogiatzis,
        D. Wang, J. H. Weare, M. J. Williamson, T. L. Windus, K. Woliski,
        A. T. Wong, Q. Wu, C. Yang, Q. Yu, M. Zacharias, Z. Zhang, Y. Zhao,
                                and R. J. Harrison
                        "NWChem: Past, present, and future
                         J. Chem. Phys. 152, 184102 (2020)
                               doi:10.1063/5.0004997

                                      AUTHORS
                                      -------
     E. Apra, E. J. Bylaska, N. Govind, K. Kowalski, M. Valiev, W. A. de Jong,
      T. P. Straatsma, H. J. J. van Dam, D. Wang, T. L. Windus, N. P. Bauman,
       A. Panyala, J. Hammond, J. Autschbach, K. Bhaskaran-Nair, J. Brabec,
    K. Lopata, S. A. Fischer, S. Krishnamoorthy, M. Jacquelin, W. Ma, M. Klemm,
       O. Villa, Y. Chen, V. Anisimov, F. Aquino, S. Hirata, M. T. Hackler,
           Eric Hermes, L. Jensen, J. E. Moore, J. C. Becca, V. Konjkov,
            D. Mejia-Rodriguez, T. Risthaus, M. Malagoli, A. Marenich,
   A. Otero-de-la-Roza, J. Mullin, P. Nichols, R. Peverati, J. Pittner, Y. Zhao,
        P.-D. Fan, A. Fonari, M. J. Williamson, R. J. Harrison, J. R. Rehr,
      M. Dupuis, D. Silverstein, D. M. A. Smith, J. Nieplocha, V. Tipparaju,
      M. Krishnan, B. E. Van Kuiken, A. Vazquez-Mayagoitia, M. Swart, Q. Wu,
   T. Van Voorhis, A. A. Auer, M. Nooijen, L. D. Crosby, E. Brown, G. Cisneros,
     G. I. Fann, H. Fruchtl, J. Garza, K. Hirao, R. A. Kendall, J. A. Nichols,
       K. Tsemekhman, K. Wolinski, J. Anchell, D. E. Bernholdt, P. Borowski,
       T. Clark, D. Clerc, H. Dachsel, M. J. O. Deegan, K. Dyall, D. Elwood,
      E. Glendening, M. Gutowski, A. C. Hess, J. Jaffe, B. G. Johnson, J. Ju,
        R. Kobayashi, R. Kutteh, Z. Lin, R. Littlefield, X. Long, B. Meng,
      T. Nakajima, S. Niu, L. Pollack, M. Rosing, K. Glaesemann, G. Sandrone,
      M. Stave, H. Taylor, G. Thomas, J. H. van Lenthe, A. T. Wong, Z. Zhang.

 Total times  cpu:        4.9s     wall:        5.5s
