 argument  1 = iron_pentacarbonyl_b3lyp_geopt.nw



============================== echo of input deck ==============================
echo

start molecule

title "Fe(CO)5 | Equilibrium Geometry | B3LYP/6-31G(d)"
charge 0

geometry units angstroms print xyz autosym
Fe    -1.383636   -0.354933   -0.791284
C     -0.844961   -1.011926    0.746374
O     -0.518187   -1.435861    1.771629
C     -1.335545    0.096979   -2.488204
O     -1.332967    0.405900   -3.602771
C     -0.434098    1.081195   -0.442864
O      0.164594    2.041618   -0.204242
C     -1.744091   -1.997139   -1.300066
O     -2.012378   -3.073135   -1.628711
C     -3.007714    0.212311   -0.349271
O     -4.059400    0.579339   -0.062729
end

basis
  * library 6-31G*
end

dft
  xc b3lyp
  mult 1
end

task dft optimize
================================================================================


                                         
                                         


             Northwest Computational Chemistry Package (NWChem) 7.2.2
             --------------------------------------------------------


                    Environmental Molecular Sciences Laboratory
                       Pacific Northwest National Laboratory
                                Richland, WA 99352

                              Copyright (c) 1994-2022
                       Pacific Northwest National Laboratory
                            Battelle Memorial Institute

             NWChem is an open-source computational chemistry package
                        distributed under the terms of the
                      Educational Community License (ECL) 2.0
             A copy of the license is included with this distribution
                              in the LICENSE.TXT file

                                  ACKNOWLEDGMENT
                                  --------------

            This software and its documentation were developed at the
            EMSL at Pacific Northwest National Laboratory, a multiprogram
            national laboratory, operated for the U.S. Department of Energy
            by Battelle under Contract Number DE-AC05-76RL01830. Support
            for this work was provided by the Department of Energy Office
            of Biological and Environmental Research, Office of Basic
            Energy Sciences, and the Office of Advanced Scientific Computing.


           Job information
           ---------------

    hostname        = DESKTOP-7OTLCGO
    program         = nwchem
    date            = Thu Feb 19 15:09:21 2026

    compiled        = Mon_Apr_01_11:12:32_2024
    source          = /build/nwchem-qbYJLs/nwchem-7.2.2/build-openmpi
    nwchem branch   = 7.2.2
    nwchem revision = N/A
    ga revision     = N/A
    use scalapack   = T
    input           = iron_pentacarbonyl_b3lyp_geopt.nw
    prefix          = molecule.
    data base       = ./molecule.db
    status          = startup
    nproc           =        4
    time left       =     -1s



           Memory information
           ------------------

    heap     =   26214398 doubles =    200.0 Mbytes
    stack    =   26214395 doubles =    200.0 Mbytes
    global   =   52428800 doubles =    400.0 Mbytes (distinct from heap & stack)
    total    =  104857593 doubles =    800.0 Mbytes
    verify   = yes
    hardfail = no 


           Directory information
           ---------------------

  0 permanent = .
  0 scratch   = .




                                NWChem Input Module
                                -------------------


                  Fe(CO)5 | Equilibrium Geometry | B3LYP/6-31G(d)
                  -----------------------------------------------

 Scaling coordinates for geometry "geometry" by  1.889725989
 (inverse scale =  0.529177249)

 C1  symmetry detected

          ------
          auto-z
          ------
  Looking for out-of-plane bends
  no constraints, skipping    0.0000000000000000     
  no constraints, skipping    0.0000000000000000     


                             Geometry "geometry" -> ""
                             -------------------------

 Output coordinates in angstroms (scale by  1.889725989 to convert to a.u.)

  No.       Tag          Charge          X              Y              Z
 ---- ---------------- ---------- -------------- -------------- --------------
    1 Fe                  26.0000     0.00030808    -0.00020162     0.10719874
    2 C                    6.0000    -0.78015619     1.54022317     0.42995199
    3 O                    8.0000    -1.29617889     2.55933589     0.61100389
    4 C                    6.0000     0.78167731    -1.54092906     0.42609650
    5 O                    8.0000     1.29828356    -2.56012265     0.60515188
    6 C                    6.0000     1.54080667     0.78036835     0.42822391
    7 O                    8.0000     2.55990054     1.29689359     0.60831912
    8 C                    6.0000    -1.53936257    -0.78154370     0.43053496
    9 O                    8.0000    -2.55796470    -1.29857557     0.61186503
   10 C                    6.0000    -0.00280488     0.00172792    -1.66896488
   11 O                    8.0000    -0.00516202     0.00323900    -2.81911768

      Atomic Mass 
      ----------- 

      Fe                55.934900
      C                 12.000000
      O                 15.994910


 Effective nuclear repulsion energy (a.u.)     816.9293128498

            Nuclear Dipole moment (a.u.) 
            ----------------------------
        X                 Y               Z
 ---------------- ---------------- ----------------
    -0.0000000000    -0.0000000000    -0.0000000000



                                Z-matrix (autoz)
                                -------- 

 Units are Angstrom for bonds and degrees for angles

      Type          Name      I     J     K     L     M      Value
      ----------- --------  ----- ----- ----- ----- ----- ----------
    1 Stretch                  1     2                       1.75676
    2 Stretch                  1     4                       1.75672
    3 Stretch                  1     6                       1.75655
    4 Stretch                  1     8                       1.75660
    5 Stretch                  1    10                       1.77617
    6 Stretch                  2     3                       1.15657
    7 Stretch                  4     5                       1.15659
    8 Stretch                  6     7                       1.15663
    9 Stretch                  8     9                       1.15661
   10 Stretch                 10    11                       1.15016
   11 Bend                     2     1     4               158.95454
   12 Bend                     2     1     6                88.07389
   13 Bend                     2     1     8                88.09809
   14 Bend                     2     1    10               100.48565
   15 Bend                     3     1     4               159.58189
   16 Bend                     3     1     6                88.18131
   17 Bend                     3     1     8                88.21730
   18 Bend                     3     1    10                99.85830
   19 Bend                     4     1     6                88.07924
   20 Bend                     4     1     8                88.07059
   21 Bend                     4     1    10               100.55981
   22 Bend                     5     1     2               159.57104
   23 Bend                     5     1     6                88.19484
   24 Bend                     5     1     8                88.17765
   25 Bend                     5     1    10                99.94331
   26 Bend                     6     1     8               158.86259
   27 Bend                     6     1    10               100.59190
   28 Bend                     7     1     2                88.18424
   29 Bend                     7     1     4                88.19341
   30 Bend                     7     1     8               159.48698
   31 Bend                     7     1    10                99.96751
   32 Bend                     8     1    10               100.54551
   33 Bend                     9     1     2                88.21415
   34 Bend                     9     1     4                88.18112
   35 Bend                     9     1     6               159.49267
   36 Bend                     9     1    10                99.91543
   37 Bend                    11     1     2               100.47806
   38 Bend                    11     1     4               100.56740
   39 Bend                    11     1     6               100.59554
   40 Bend                    11     1     8               100.54187
   41 Torsion                  1     2     4     5        -179.93387
   42 Torsion                  1     2     6     7         177.83721
   43 Torsion                  1     2     8     9        -177.81946
   44 Torsion                  1     2    10    11         179.98542
   45 Torsion                  1     4     2     3        -179.89933
   46 Torsion                  1     4     6     7        -177.83919
   47 Torsion                  1     4     8     9         177.81691
   48 Torsion                  1     4    10    11        -179.98540
   49 Torsion                  1     6     2     3        -177.82449
   50 Torsion                  1     6     4     5         177.86781
   51 Torsion                  1     6     8     9         179.94947
   52 Torsion                  1     6    10    11         179.96959
   53 Torsion                  1     8     2     3         177.83059
   54 Torsion                  1     8     4     5        -177.86327
   55 Torsion                  1     8     6     7         179.97425
   56 Torsion                  1     8    10    11        -179.96962
   57 Torsion                  1    10     2     3         179.97637
   58 Torsion                  1    10     4     5         179.98452
   59 Torsion                  1    10     6     7        -179.99420
   60 Torsion                  1    10     8     9        -179.98784


            XYZ format geometry
            -------------------
    11
 geometry
 Fe                    0.00030808    -0.00020162     0.10719874
 C                    -0.78015619     1.54022317     0.42995199
 O                    -1.29617889     2.55933589     0.61100389
 C                     0.78167731    -1.54092906     0.42609650
 O                     1.29828356    -2.56012265     0.60515188
 C                     1.54080667     0.78036835     0.42822391
 O                     2.55990054     1.29689359     0.60831912
 C                    -1.53936257    -0.78154370     0.43053496
 O                    -2.55796470    -1.29857557     0.61186503
 C                    -0.00280488     0.00172792    -1.66896488
 O                    -0.00516202     0.00323900    -2.81911768

 ==============================================================================
                                internuclear distances
 ------------------------------------------------------------------------------
       center one      |      center two      | atomic units |  angstroms
 ------------------------------------------------------------------------------
    2 C                |   1 Fe               |     3.31979  |     1.75676
    3 O                |   2 C                |     2.18560  |     1.15657
    4 C                |   1 Fe               |     3.31972  |     1.75672
    5 O                |   4 C                |     2.18564  |     1.15659
    6 C                |   1 Fe               |     3.31941  |     1.75655
    7 O                |   6 C                |     2.18571  |     1.15663
    8 C                |   1 Fe               |     3.31948  |     1.75660
    9 O                |   8 C                |     2.18568  |     1.15661
   10 C                |   1 Fe               |     3.35647  |     1.77617
   11 O                |  10 C                |     2.17348  |     1.15016
 ------------------------------------------------------------------------------
                         number of included internuclear distances:         10
 ==============================================================================



 ==============================================================================
                                 internuclear angles
 ------------------------------------------------------------------------------
        center 1       |       center 2       |       center 3       |  degrees
 ------------------------------------------------------------------------------
    2 C                |   1 Fe               |   4 C                |   158.95
    2 C                |   1 Fe               |   6 C                |    88.07
    2 C                |   1 Fe               |   8 C                |    88.10
    2 C                |   1 Fe               |  10 C                |   100.49
    4 C                |   1 Fe               |   6 C                |    88.08
    4 C                |   1 Fe               |   8 C                |    88.07
    4 C                |   1 Fe               |  10 C                |   100.56
    6 C                |   1 Fe               |   8 C                |   158.86
    6 C                |   1 Fe               |  10 C                |   100.59
    8 C                |   1 Fe               |  10 C                |   100.55
    1 Fe               |   2 C                |   3 O                |   178.42
    1 Fe               |   4 C                |   5 O                |   178.45
    1 Fe               |   6 C                |   7 O                |   178.43
    1 Fe               |   8 C                |   9 O                |   178.41
    1 Fe               |  10 C                |  11 O                |   179.98
 ------------------------------------------------------------------------------
                            number of included internuclear angles:         15
 ==============================================================================





 Summary of "ao basis" -> "" (cartesian)
 ------------------------------------------------------------------------------
       Tag                 Description            Shells   Functions and Types
 ---------------- ------------------------------  ------  ---------------------
 *                           6-31G*                   on all atoms 




                           NWChem Geometry Optimization
                           ----------------------------




                  Fe(CO)5 | Equilibrium Geometry | B3LYP/6-31G(d)


  no constraints, skipping    0.0000000000000000     
 maximum gradient threshold         (gmax) =   0.000450
 rms gradient threshold             (grms) =   0.000300
 maximum cartesian step threshold   (xmax) =   0.001800
 rms cartesian step threshold       (xrms) =   0.001200
 fixed trust radius                (trust) =   0.300000
 maximum step size to saddle      (sadstp) =   0.100000
 energy precision                  (eprec) =   5.0D-06
 maximum number of steps          (nptopt) =   40
 initial hessian option           (inhess) =    0
 line search option               (linopt) =    1
 hessian update option            (modupd) =    1
 saddle point option              (modsad) =    0
 initial eigen-mode to follow     (moddir) =    0
 initial variable to follow       (vardir) =    0
 follow first negative mode     (firstneg) =    T
 apply conjugacy                    (opcg) =    F
 source of zmatrix                         =   autoz   


          -------------------
          Energy Minimization
          -------------------


 Names of Z-matrix variables 
    1              2              3              4              5         
    6              7              8              9             10         
   11             12             13             14             15         
   16             17             18             19             20         
   21             22             23             24             25         
   26             27             28             29             30         
   31             32             33             34             35         
   36             37             38             39             40         
   41             42             43             44             45         
   46             47             48             49             50         
   51             52             53             54             55         
   56             57             58             59             60         

 Variables with the same non-blank name are constrained to be equal


 Using diagonal initial Hessian 
 Scaling for Hessian diagonals: bonds = 1.00  angles = 0.25  torsions = 0.10

          --------
          Step   0
          --------


                         Geometry "geometry" -> "geometry"
                         ---------------------------------

 Output coordinates in angstroms (scale by  1.889725989 to convert to a.u.)

  No.       Tag          Charge          X              Y              Z
 ---- ---------------- ---------- -------------- -------------- --------------
    1 Fe                  26.0000     0.00030808    -0.00020162     0.10719874
    2 C                    6.0000    -0.78015619     1.54022317     0.42995199
    3 O                    8.0000    -1.29617889     2.55933589     0.61100389
    4 C                    6.0000     0.78167731    -1.54092906     0.42609650
    5 O                    8.0000     1.29828356    -2.56012265     0.60515188
    6 C                    6.0000     1.54080667     0.78036835     0.42822391
    7 O                    8.0000     2.55990054     1.29689359     0.60831912
    8 C                    6.0000    -1.53936257    -0.78154370     0.43053496
    9 O                    8.0000    -2.55796470    -1.29857557     0.61186503
   10 C                    6.0000    -0.00280488     0.00172792    -1.66896488
   11 O                    8.0000    -0.00516202     0.00323900    -2.81911768

      Atomic Mass 
      ----------- 

      Fe                55.934900
      C                 12.000000
      O                 15.994910


 Effective nuclear repulsion energy (a.u.)     816.9293128498

            Nuclear Dipole moment (a.u.) 
            ----------------------------
        X                 Y               Z
 ---------------- ---------------- ----------------
    -0.0000000000    -0.0000000000    -0.0000000000


                                 NWChem DFT Module
                                 -----------------


                  Fe(CO)5 | Equilibrium Geometry | B3LYP/6-31G(d)


                      Basis "ao basis" -> "ao basis" (cartesian)
                      -----
  Fe (Iron)
  ---------
            Exponent  Coefficients 
       -------------- ---------------------------------------------------------
  1 S  6.11326200E+04  0.001766
  1 S  9.17934200E+03  0.013530
  1 S  2.09085700E+03  0.066731
  1 S  5.89247900E+02  0.231482
  1 S  1.88754300E+02  0.479706
  1 S  6.44462900E+01  0.350198

  2 S  1.25998000E+03  0.002438
  2 S  2.99876100E+02  0.032240
  2 S  9.68491700E+01  0.126572
  2 S  3.63102000E+01 -0.031399
  2 S  1.47299600E+01 -0.620759
  2 S  6.06607500E+00 -0.450291

  3 P  1.25998000E+03  0.004028
  3 P  2.99876100E+02  0.031446
  3 P  9.68491700E+01  0.136832
  3 P  3.63102000E+01  0.348724
  3 P  1.47299600E+01  0.461793
  3 P  6.06607500E+00  0.204306

  4 S  5.04348500E+01 -0.003873
  4 S  1.68392900E+01  0.071966
  4 S  7.19208600E+00  0.255659
  4 S  3.05342000E+00 -0.288284
  4 S  1.27364300E+00 -0.734282
  4 S  5.04091000E-01 -0.204935

  5 P  5.04348500E+01 -0.007017
  5 P  1.68392900E+01 -0.028777
  5 P  7.19208600E+00  0.061814
  5 P  3.05342000E+00  0.395495
  5 P  1.27364300E+00  0.498906
  5 P  5.04091000E-01  0.179125

  6 S  1.95031600E+00  0.056949
  6 S  7.36721000E-01  0.288292
  6 S  1.14177000E-01 -1.138159

  7 P  1.95031600E+00 -0.459380
  7 P  7.36721000E-01  0.285214
  7 P  1.14177000E-01  0.907649

  8 S  4.11480000E-02  1.000000

  9 P  4.11480000E-02  1.000000

 10 D  2.31499400E+01  0.088769
 10 D  6.12236800E+00  0.389632
 10 D  1.84660100E+00  0.701482

 11 D  5.04361000E-01  1.000000

 12 F  8.00000000E-01  1.000000

  C (Carbon)
  ----------
            Exponent  Coefficients 
       -------------- ---------------------------------------------------------
  1 S  3.04752490E+03  0.001835
  1 S  4.57369510E+02  0.014037
  1 S  1.03948690E+02  0.068843
  1 S  2.92101550E+01  0.232184
  1 S  9.28666300E+00  0.467941
  1 S  3.16392700E+00  0.362312

  2 S  7.86827240E+00 -0.119332
  2 S  1.88128850E+00 -0.160854
  2 S  5.44249300E-01  1.143456

  3 P  7.86827240E+00  0.068999
  3 P  1.88128850E+00  0.316424
  3 P  5.44249300E-01  0.744308

  4 S  1.68714400E-01  1.000000

  5 P  1.68714400E-01  1.000000

  6 D  8.00000000E-01  1.000000

  O (Oxygen)
  ----------
            Exponent  Coefficients 
       -------------- ---------------------------------------------------------
  1 S  5.48467170E+03  0.001831
  1 S  8.25234950E+02  0.013950
  1 S  1.88046960E+02  0.068445
  1 S  5.29645000E+01  0.232714
  1 S  1.68975700E+01  0.470193
  1 S  5.79963530E+00  0.358521

  2 S  1.55396160E+01 -0.110778
  2 S  3.59993360E+00 -0.148026
  2 S  1.01376180E+00  1.130767

  3 P  1.55396160E+01  0.070874
  3 P  3.59993360E+00  0.339753
  3 P  1.01376180E+00  0.727159

  4 S  2.70005800E-01  1.000000

  5 P  2.70005800E-01  1.000000

  6 D  8.00000000E-01  1.000000



 Summary of "ao basis" -> "ao basis" (cartesian)
 ------------------------------------------------------------------------------
       Tag                 Description            Shells   Functions and Types
 ---------------- ------------------------------  ------  ---------------------
 Fe                          6-31G*                 12       39   5s4p2d1f
 C                           6-31G*                  6       15   3s2p1d
 O                           6-31G*                  6       15   3s2p1d




 Summary of "ao basis" -> "ao basis" (cartesian)
 ------------------------------------------------------------------------------
       Tag                 Description            Shells   Functions and Types
 ---------------- ------------------------------  ------  ---------------------
 Fe                          6-31G*                 12       39   5s4p2d1f
 C                           6-31G*                  6       15   3s2p1d
 O                           6-31G*                  6       15   3s2p1d


  Caching 1-el integrals 

            General Information
            -------------------
          SCF calculation type: DFT
          Wavefunction type:  closed shell.
          No. of atoms     :    11
          No. of electrons :    96
           Alpha electrons :    48
            Beta electrons :    48
          Charge           :     0
          Spin multiplicity:     1
          Use of symmetry is: off; symmetry adaption is: off
          Maximum number of iterations:  50
          AO basis - number of functions:   189
                     number of shells:    72
          Convergence on energy requested:  1.00D-06
          Convergence on density requested:  1.00D-05
          Convergence on gradient requested:  5.00D-04

              XC Information
              --------------
                         B3LYP Method XC Potential
                     Hartree-Fock (Exact) Exchange  0.200          
                        Slater Exchange Functional  0.800 local    
                    Becke 1988 Exchange Functional  0.720 non-local
              Lee-Yang-Parr Correlation Functional  0.810          
                  VWN I RPA Correlation Functional  0.190 local    

             Grid Information
             ----------------
          Grid used for XC integration:  medium    
          Radial quadrature: Mura-Knowles        
          Angular quadrature: Lebedev. 
          Tag              B.-S. Rad. Rad. Pts. Rad. Cut. Ang. Pts.
          ---              ---------- --------- --------- ---------
          Fe                  1.40      112           8.0       590
          C                   0.70       49          10.0       434
          O                   0.60       49          11.0       434
          Grid pruning is: on 
          Number of quadrature shells:   602
          Spatial weights used:  Erf1

          Convergence Information
          -----------------------
          Convergence aids based upon iterative change in 
          total energy or number of iterations. 
          Levelshifting, if invoked, occurs when the 
          HOMO/LUMO gap drops below (HL_TOL):  1.00D-02
          DIIS, if invoked, will attempt to extrapolate 
          using up to (NFOCK): 10 stored Fock matrices.

                    Damping( 0%)  Levelshifting(0.5)       DIIS
                  --------------- ------------------- ---------------
          dE  on:    start            ASAP                start   
          dE off:    2 iters         50 iters            50 iters 


      Screening Tolerance Information
      -------------------------------
          Density screening/tol_rho:  1.00D-10
          AO Gaussian exp screening on grid/accAOfunc:  14
          CD Gaussian exp screening on grid/accCDfunc:  20
          XC Gaussian exp screening on grid/accXCfunc:  20
          Schwarz screening/accCoul:  1.00D-08


      Superposition of Atomic Density Guess
      -------------------------------------

 Sum of atomic energies:       -1824.20260944

      Non-variational initial energy
      ------------------------------

 Total energy =   -1827.920635
 1-e energy   =   -4139.925932
 2-e energy   =    1495.075985
 HOMO         =      -0.245719
 LUMO         =      -0.019221

  WARNING: movecs_in_org=atomic not equal to movecs_in=./molecule.movecs
   Time after variat. SCF:      1.6
   Time prior to 1st pass:      1.6

 Integral file          = ./molecule.aoints.0
 Record size in doubles =  65536        No. of integs per rec  =  43688
 Max. records in memory =      0        Max. records in file   = 460472
 No. of bits per label  =      8        No. of bits per value  =     64


 #quartets = 2.186D+06 #integrals = 8.920D+07 #direct =  0.0% #cached =100.0%


File balance: exchanges=     3  moved=   133  time=   0.0


 Grid_pts file          = ./molecule.gridpts.0
 Record size in doubles =  12289        No. of grid_pts per rec  =   3070
 Max. records in memory =     33        Max. recs in file   =   2453060


           Memory utilization after 1st SCF pass: 
           Heap Space remaining (MW):       25.71            25713038
          Stack Space remaining (MW):       26.21            26213140

   convergence    iter        energy       DeltaE   RMS-Dens  Diis-err    time
 ---------------- ----- ----------------- --------- --------- ---------  ------
 d= 0,ls=0.0,diis     1  -1829.9314256646 -2.65D+03  2.29D-02  3.57D+00     6.6
 d= 0,ls=0.0,diis     2  -1826.6213930810  3.31D+00  2.47D-02  4.81D+01    10.3
 d= 0,ls=0.0,diis     3  -1829.1334529479 -2.51D+00  1.06D-02  1.76D+01    13.9
 d= 0,ls=0.0,diis     4  -1830.2829895772 -1.15D+00  2.23D-03  4.41D-01    17.5
 d= 0,ls=0.0,diis     5  -1830.3122774027 -2.93D-02  6.30D-04  6.42D-02    21.6
  Resetting Diis
 d= 0,ls=0.0,diis     6  -1830.3173554294 -5.08D-03  1.23D-04  3.82D-04    25.6
 d= 0,ls=0.0,diis     7  -1830.3173947781 -3.93D-05  1.39D-04  1.01D-04    29.3
 d= 0,ls=0.0,diis     8  -1830.3173222080  7.26D-05  1.31D-04  1.22D-03    33.2
 d= 0,ls=0.0,diis     9  -1830.3173652491 -4.30D-05  6.34D-05  6.81D-04    36.9
 d= 0,ls=0.0,diis    10  -1830.3174067510 -4.15D-05  8.38D-06  4.78D-06    40.7
 d= 0,ls=0.0,diis    11  -1830.3174071938 -4.43D-07  6.53D-06  3.18D-07    44.5


         Total DFT energy =    -1830.317407193840
      One electron energy =    -4143.225001292817
           Coulomb energy =     1621.281969997470
    Exchange-Corr. energy =     -125.303688748264
 Nuclear repulsion energy =      816.929312849770

 Numeric. integr. density =       95.999987983852

     Total iterative time =     42.9s



                       DFT Final Molecular Orbital Analysis
                       ------------------------------------

 Vector    1  Occ=2.000000D+00  E=-2.561493D+02
              MO Center=  3.1D-04, -2.0D-04,  1.1D-01, r^2= 1.3D-03
   Bfn.  Coefficient  Atom+Function         Bfn.  Coefficient  Atom+Function  
  ----- ------------  ---------------      ----- ------------  ---------------
     1      0.996251   1 Fe s                 6      0.025220   1 Fe s         

 Vector    2  Occ=2.000000D+00  E=-3.013076D+01
              MO Center=  3.1D-04, -2.0D-04,  1.1D-01, r^2= 2.4D-02
   Bfn.  Coefficient  Atom+Function         Bfn.  Coefficient  Atom+Function  
  ----- ------------  ---------------      ----- ------------  ---------------
     2      1.036521   1 Fe s                 1      0.302564   1 Fe s         
     6      0.040070   1 Fe s                10      0.037641   1 Fe s         

 Vector    3  Occ=2.000000D+00  E=-2.599753D+01
              MO Center=  3.1D-04, -2.0D-04,  1.1D-01, r^2= 1.9D-02
   Bfn.  Coefficient  Atom+Function         Bfn.  Coefficient  Atom+Function  
  ----- ------------  ---------------      ----- ------------  ---------------
     4      0.916879   1 Fe py                3     -0.388648   1 Fe px        

 Vector    4  Occ=2.000000D+00  E=-2.599750D+01
              MO Center=  3.1D-04, -2.0D-04,  1.1D-01, r^2= 1.9D-02
   Bfn.  Coefficient  Atom+Function         Bfn.  Coefficient  Atom+Function  
  ----- ------------  ---------------      ----- ------------  ---------------
     3      0.916879   1 Fe px                4      0.388648   1 Fe py        

 Vector    5  Occ=2.000000D+00  E=-2.598322D+01
              MO Center=  3.1D-04, -2.0D-04,  1.1D-01, r^2= 1.9D-02
   Bfn.  Coefficient  Atom+Function         Bfn.  Coefficient  Atom+Function  
  ----- ------------  ---------------      ----- ------------  ---------------
     5      0.995907   1 Fe pz        

 Vector    6  Occ=2.000000D+00  E=-1.925458D+01
              MO Center= -5.2D-03,  3.2D-03, -2.8D+00, r^2= 1.5D-02
   Bfn.  Coefficient  Atom+Function         Bfn.  Coefficient  Atom+Function  
  ----- ------------  ---------------      ----- ------------  ---------------
   175      0.992660  11 O  s               176      0.025460  11 O  s         

 Vector    7  Occ=2.000000D+00  E=-1.925225D+01
              MO Center= -1.3D+00,  2.6D+00,  6.1D-01, r^2= 2.6D-02
   Bfn.  Coefficient  Atom+Function         Bfn.  Coefficient  Atom+Function  
  ----- ------------  ---------------      ----- ------------  ---------------
    55      0.992427   3 O  s                56      0.025429   3 O  s         

 Vector    8  Occ=2.000000D+00  E=-1.925223D+01
              MO Center=  1.3D+00, -2.6D+00,  6.1D-01, r^2= 3.0D-02
   Bfn.  Coefficient  Atom+Function         Bfn.  Coefficient  Atom+Function  
  ----- ------------  ---------------      ----- ------------  ---------------
    85      0.992299   5 O  s                86      0.025428   5 O  s         

 Vector    9  Occ=2.000000D+00  E=-1.925218D+01
              MO Center= -2.6D+00, -1.3D+00,  6.1D-01, r^2= 3.1D-02
   Bfn.  Coefficient  Atom+Function         Bfn.  Coefficient  Atom+Function  
  ----- ------------  ---------------      ----- ------------  ---------------
   145      0.992296   9 O  s               146      0.025433   9 O  s         

 Vector   10  Occ=2.000000D+00  E=-1.925216D+01
              MO Center=  2.6D+00,  1.3D+00,  6.1D-01, r^2= 2.7D-02
   Bfn.  Coefficient  Atom+Function         Bfn.  Coefficient  Atom+Function  
  ----- ------------  ---------------      ----- ------------  ---------------
   115      0.992409   7 O  s               116      0.025438   7 O  s         

 Vector   11  Occ=2.000000D+00  E=-1.033513D+01
              MO Center= -7.5D-01,  1.5D+00,  4.3D-01, r^2= 2.8D-01
   Bfn.  Coefficient  Atom+Function         Bfn.  Coefficient  Atom+Function  
  ----- ------------  ---------------      ----- ------------  ---------------
    40      0.981896   2 C  s                70     -0.145667   4 C  s         
    41      0.049380   2 C  s         

 Vector   12  Occ=2.000000D+00  E=-1.033512D+01
              MO Center=  7.5D-01, -1.5D+00,  4.3D-01, r^2= 2.9D-01
   Bfn.  Coefficient  Atom+Function         Bfn.  Coefficient  Atom+Function  
  ----- ------------  ---------------      ----- ------------  ---------------
    70      0.981183   4 C  s                40      0.143882   2 C  s         
    71      0.049325   4 C  s               130      0.041276   8 C  s         
   100      0.032352   6 C  s         

 Vector   13  Occ=2.000000D+00  E=-1.033507D+01
              MO Center= -1.4D+00, -7.2D-01,  4.3D-01, r^2= 4.9D-01
   Bfn.  Coefficient  Atom+Function         Bfn.  Coefficient  Atom+Function  
  ----- ------------  ---------------      ----- ------------  ---------------
   130      0.972371   8 C  s               100     -0.198067   6 C  s         
   131      0.048918   8 C  s                70     -0.030987   4 C  s         

 Vector   14  Occ=2.000000D+00  E=-1.033505D+01
              MO Center=  1.4D+00,  7.2D-01,  4.3D-01, r^2= 4.9D-01
   Bfn.  Coefficient  Atom+Function         Bfn.  Coefficient  Atom+Function  
  ----- ------------  ---------------      ----- ------------  ---------------
   100      0.972401   6 C  s               130      0.196150   8 C  s         
   101      0.048901   6 C  s                70     -0.036147   4 C  s         
    40     -0.028895   2 C  s         

 Vector   15  Occ=2.000000D+00  E=-1.033438D+01
              MO Center= -2.8D-03,  1.7D-03, -1.7D+00, r^2= 2.8D-02
   Bfn.  Coefficient  Atom+Function         Bfn.  Coefficient  Atom+Function  
  ----- ------------  ---------------      ----- ------------  ---------------
   160      0.993131  10 C  s               161      0.050092  10 C  s         

 Vector   16  Occ=2.000000D+00  E=-3.506047D+00
              MO Center=  3.1D-04, -2.0D-04,  1.1D-01, r^2= 2.2D-01
   Bfn.  Coefficient  Atom+Function         Bfn.  Coefficient  Atom+Function  
  ----- ------------  ---------------      ----- ------------  ---------------
     6      1.087425   1 Fe s                 2     -0.445565   1 Fe s         
     1     -0.113381   1 Fe s                10      0.047960   1 Fe s         

 Vector   17  Occ=2.000000D+00  E=-2.287108D+00
              MO Center=  3.1D-04, -2.0D-04,  1.1D-01, r^2= 2.5D-01
   Bfn.  Coefficient  Atom+Function         Bfn.  Coefficient  Atom+Function  
  ----- ------------  ---------------      ----- ------------  ---------------
     8      1.007585   1 Fe py                4     -0.351155   1 Fe py        
     7     -0.337382   1 Fe px                3      0.117582   1 Fe px        

 Vector   18  Occ=2.000000D+00  E=-2.287070D+00
              MO Center=  3.1D-04, -2.0D-04,  1.1D-01, r^2= 2.5D-01
   Bfn.  Coefficient  Atom+Function         Bfn.  Coefficient  Atom+Function  
  ----- ------------  ---------------      ----- ------------  ---------------
     7      1.007590   1 Fe px                3     -0.351154   1 Fe px        
     8      0.337384   1 Fe py                4     -0.117581   1 Fe py        

 Vector   19  Occ=2.000000D+00  E=-2.258009D+00
              MO Center=  3.0D-04, -2.0D-04,  1.0D-01, r^2= 2.5D-01
   Bfn.  Coefficient  Atom+Function         Bfn.  Coefficient  Atom+Function  
  ----- ------------  ---------------      ----- ------------  ---------------
     9      1.065529   1 Fe pz                5     -0.370752   1 Fe pz        

 Vector   20  Occ=2.000000D+00  E=-1.155647D+00
              MO Center= -4.6D-03,  2.9D-03, -2.5D+00, r^2= 6.0D-01
   Bfn.  Coefficient  Atom+Function         Bfn.  Coefficient  Atom+Function  
  ----- ------------  ---------------      ----- ------------  ---------------
   176      0.431245  11 O  s               180      0.422114  11 O  s         
   161      0.220309  10 C  s               164     -0.214552  10 C  pz        
   175     -0.200738  11 O  s               179      0.177468  11 O  pz        
   160     -0.117427  10 C  s               168      0.073797  10 C  pz        
   183      0.061037  11 O  pz              165      0.041721  10 C  s         

 Vector   21  Occ=2.000000D+00  E=-1.151848D+00
              MO Center= -3.6D-02,  2.2D-02,  5.2D-01, r^2= 6.9D+00
   Bfn.  Coefficient  Atom+Function         Bfn.  Coefficient  Atom+Function  
  ----- ------------  ---------------      ----- ------------  ---------------
    56      0.222055   3 O  s                60      0.220949   3 O  s         
    86      0.215815   5 O  s                90      0.214934   5 O  s         
   146      0.211744   9 O  s               150      0.210473   9 O  s         
   116      0.207780   7 O  s               120      0.206651   7 O  s         
    41      0.115010   2 C  s                71      0.111838   4 C  s         

 Vector   22  Occ=2.000000D+00  E=-1.150691D+00
              MO Center= -4.1D-03,  6.8D-03,  5.6D-01, r^2= 6.9D+00
   Bfn.  Coefficient  Atom+Function         Bfn.  Coefficient  Atom+Function  
  ----- ------------  ---------------      ----- ------------  ---------------
    56      0.307895   3 O  s                86     -0.306827   5 O  s         
    60      0.296842   3 O  s                90     -0.295641   5 O  s         
    41      0.156408   2 C  s                71     -0.155996   4 C  s         
    55     -0.142616   3 O  s                85      0.142106   5 O  s         
    43      0.133877   2 C  py               73      0.133361   4 C  py        

 Vector   23  Occ=2.000000D+00  E=-1.150601D+00
              MO Center= -1.2D-02, -8.3D-03,  5.6D-01, r^2= 6.9D+00
   Bfn.  Coefficient  Atom+Function         Bfn.  Coefficient  Atom+Function  
  ----- ------------  ---------------      ----- ------------  ---------------
   146     -0.308275   9 O  s               116      0.306481   7 O  s         
   150     -0.297235   9 O  s               120      0.295332   7 O  s         
   131     -0.156612   8 C  s               101      0.155799   6 C  s         
   145      0.142793   9 O  s               115     -0.141947   7 O  s         
   132      0.133953   8 C  px              102      0.133192   6 C  px        

 Vector   24  Occ=2.000000D+00  E=-1.149732D+00
              MO Center=  5.6D-02, -2.3D-02,  5.6D-01, r^2= 6.9D+00
   Bfn.  Coefficient  Atom+Function         Bfn.  Coefficient  Atom+Function  
  ----- ------------  ---------------      ----- ------------  ---------------
   120      0.228765   7 O  s               116      0.224119   7 O  s         
   150      0.222503   9 O  s                90     -0.220356   5 O  s         
   146      0.217620   9 O  s                86     -0.215699   5 O  s         
    60     -0.212776   3 O  s                56     -0.207830   3 O  s         
   101      0.110543   6 C  s               131      0.107244   8 C  s         

 Vector   25  Occ=2.000000D+00  E=-6.487864D-01
              MO Center=  1.6D-04, -9.2D-05,  1.8D-01, r^2= 4.1D+00
   Bfn.  Coefficient  Atom+Function         Bfn.  Coefficient  Atom+Function  
  ----- ------------  ---------------      ----- ------------  ---------------
     6      0.262197   1 Fe s                45      0.180687   2 C  s         
    75      0.180667   4 C  s               105      0.180549   6 C  s         
   135      0.180556   8 C  s                41      0.168813   2 C  s         
    71      0.168791   4 C  s               101      0.168670   6 C  s         
   131      0.168680   8 C  s                60     -0.126476   3 O  s         

 Vector   26  Occ=2.000000D+00  E=-5.856541D-01
              MO Center=  1.4D-03, -9.0D-03,  5.4D-01, r^2= 7.3D+00
   Bfn.  Coefficient  Atom+Function         Bfn.  Coefficient  Atom+Function  
  ----- ------------  ---------------      ----- ------------  ---------------
    60     -0.265230   3 O  s                90      0.265897   5 O  s         
    45      0.263000   2 C  s                75     -0.263836   4 C  s         
    41      0.241623   2 C  s                71     -0.242586   4 C  s         
    58     -0.230063   3 O  py               88     -0.230888   5 O  py        
    56     -0.181023   3 O  s                86      0.181679   5 O  s         

 Vector   27  Occ=2.000000D+00  E=-5.856022D-01
              MO Center=  1.2D-02,  1.4D-03,  5.4D-01, r^2= 7.3D+00
   Bfn.  Coefficient  Atom+Function         Bfn.  Coefficient  Atom+Function  
  ----- ------------  ---------------      ----- ------------  ---------------
   120     -0.266028   7 O  s               105      0.264016   6 C  s         
   150      0.265082   9 O  s               135     -0.262908   8 C  s         
   101      0.242755   6 C  s               131     -0.241503   8 C  s         
   117     -0.230966   7 O  px              147     -0.229791   9 O  px        
   116     -0.181769   7 O  s               146      0.180909   9 O  s         

 Vector   28  Occ=2.000000D+00  E=-5.848777D-01
              MO Center= -2.0D-02,  1.2D-02, -2.1D+00, r^2= 2.7D+00
   Bfn.  Coefficient  Atom+Function         Bfn.  Coefficient  Atom+Function  
  ----- ------------  ---------------      ----- ------------  ---------------
   179      0.375050  11 O  pz              180     -0.353090  11 O  s         
   161      0.334807  10 C  s               165      0.330658  10 C  s         
   176     -0.248739  11 O  s               183      0.186850  11 O  pz        
   160     -0.156914  10 C  s                23      0.107873   1 Fe dzz       
   175      0.106956  11 O  s                 9      0.104421   1 Fe pz        

 Vector   29  Occ=2.000000D+00  E=-5.786395D-01
              MO Center=  6.0D-03, -3.2D-03,  5.1D-01, r^2= 7.2D+00
   Bfn.  Coefficient  Atom+Function         Bfn.  Coefficient  Atom+Function  
  ----- ------------  ---------------      ----- ------------  ---------------
    19      0.227753   1 Fe dxy              41     -0.181052   2 C  s         
    71     -0.181754   4 C  s               101      0.181724   6 C  s         
   131      0.181222   8 C  s                60      0.177036   3 O  s         
    90      0.177806   5 O  s               120     -0.177646   7 O  s         
   150     -0.177096   9 O  s                58      0.173365   3 O  py        

 Vector   30  Occ=2.000000D+00  E=-5.197889D-01
              MO Center=  1.4D-04, -5.3D-05,  2.8D-01, r^2= 8.1D+00
   Bfn.  Coefficient  Atom+Function         Bfn.  Coefficient  Atom+Function  
  ----- ------------  ---------------      ----- ------------  ---------------
    58      0.220649   3 O  py               88     -0.220594   5 O  py        
   117      0.220294   7 O  px              147     -0.220272   9 O  px        
    60      0.181771   3 O  s                90      0.181709   5 O  s         
   120      0.181655   7 O  s               150      0.181686   9 O  s         
     6      0.175474   1 Fe s                43     -0.161823   2 C  py        

 Vector   31  Occ=2.000000D+00  E=-5.038408D-01
              MO Center=  6.8D-04, -3.5D-04,  4.9D-01, r^2= 5.9D+00
   Bfn.  Coefficient  Atom+Function         Bfn.  Coefficient  Atom+Function  
  ----- ------------  ---------------      ----- ------------  ---------------
    57      0.200387   3 O  px               87     -0.200333   5 O  px        
   118      0.199878   7 O  py              148     -0.199912   9 O  py        
    19      0.172448   1 Fe dxy              42      0.169151   2 C  px        
    72     -0.169077   4 C  px              103      0.168991   6 C  py        
   133     -0.168925   8 C  py               25      0.119274   1 Fe dxy       

 Vector   32  Occ=2.000000D+00  E=-4.907596D-01
              MO Center= -9.4D-03,  2.1D-03,  2.8D-01, r^2= 6.6D+00
   Bfn.  Coefficient  Atom+Function         Bfn.  Coefficient  Atom+Function  
  ----- ------------  ---------------      ----- ------------  ---------------
   148      0.220526   9 O  py              118      0.219157   7 O  py        
    58      0.209974   3 O  py               88      0.207770   5 O  py        
   132     -0.190347   8 C  px              102     -0.187911   6 C  px        
    42      0.186715   2 C  px               72      0.185565   4 C  px        
   178      0.137257  11 O  py                8     -0.135480   1 Fe py        

 Vector   33  Occ=2.000000D+00  E=-4.907366D-01
              MO Center=  2.8D-03,  1.8D-03,  2.8D-01, r^2= 6.6D+00
   Bfn.  Coefficient  Atom+Function         Bfn.  Coefficient  Atom+Function  
  ----- ------------  ---------------      ----- ------------  ---------------
    57      0.220126   3 O  px               87      0.219992   5 O  px        
   117      0.209108   7 O  px              147      0.208219   9 O  px        
    43      0.189349   2 C  py               73      0.189146   4 C  py        
   103     -0.186174   6 C  py              133     -0.185636   8 C  py        
   177      0.137552  11 O  px                7     -0.135424   1 Fe px        

 Vector   34  Occ=2.000000D+00  E=-4.895048D-01
              MO Center=  5.7D-03, -3.4D-03,  3.0D-01, r^2= 4.4D+00
   Bfn.  Coefficient  Atom+Function         Bfn.  Coefficient  Atom+Function  
  ----- ------------  ---------------      ----- ------------  ---------------
    19      0.449638   1 Fe dxy              25      0.298727   1 Fe dxy       
   102     -0.175219   6 C  px               73     -0.174132   4 C  py        
    43      0.172235   2 C  py              132      0.172102   8 C  px        
    88      0.166057   5 O  py               18      0.164908   1 Fe dxx       
    21     -0.164543   1 Fe dyy             117      0.164733   7 O  px        

 Vector   35  Occ=2.000000D+00  E=-4.859885D-01
              MO Center= -2.8D-02,  6.3D-02, -7.8D-01, r^2= 5.8D+00
   Bfn.  Coefficient  Atom+Function         Bfn.  Coefficient  Atom+Function  
  ----- ------------  ---------------      ----- ------------  ---------------
   178      0.315600  11 O  py               59     -0.248857   3 O  pz        
    89      0.235338   5 O  pz              163      0.225089  10 C  py        
    22     -0.219170   1 Fe dyz             182      0.178407  11 O  py        
    44     -0.176859   2 C  pz               74      0.168873   4 C  pz        
    28     -0.150498   1 Fe dyz              63     -0.138208   3 O  pz        

 Vector   36  Occ=2.000000D+00  E=-4.859324D-01
              MO Center= -5.2D-02, -2.0D-02, -7.8D-01, r^2= 5.8D+00
   Bfn.  Coefficient  Atom+Function         Bfn.  Coefficient  Atom+Function  
  ----- ------------  ---------------      ----- ------------  ---------------
   177      0.316230  11 O  px              149      0.247089   9 O  pz        
   119     -0.236266   7 O  pz              162      0.225435  10 C  px        
    20     -0.219123   1 Fe dxz             181      0.178789  11 O  px        
   134      0.175870   8 C  pz              104     -0.169254   6 C  pz        
    26     -0.150459   1 Fe dxz             153      0.137210   9 O  pz        

 Vector   37  Occ=2.000000D+00  E=-4.854616D-01
              MO Center=  7.8D-02, -4.2D-02, -3.2D-01, r^2= 6.0D+00
   Bfn.  Coefficient  Atom+Function         Bfn.  Coefficient  Atom+Function  
  ----- ------------  ---------------      ----- ------------  ---------------
   164      0.277848  10 C  pz              179     -0.258145  11 O  pz        
    89     -0.202728   5 O  pz              119     -0.199329   7 O  pz        
   149     -0.186757   9 O  pz               59     -0.184534   3 O  pz        
   180      0.173695  11 O  s               165      0.154082  10 C  s         
     9      0.132501   1 Fe pz               74     -0.133105   4 C  pz        

 Vector   38  Occ=2.000000D+00  E=-4.693628D-01
              MO Center=  1.9D-03, -1.0D-03, -5.3D-01, r^2= 4.8D+00
   Bfn.  Coefficient  Atom+Function         Bfn.  Coefficient  Atom+Function  
  ----- ------------  ---------------      ----- ------------  ---------------
   164      0.327132  10 C  pz              165      0.259278  10 C  s         
   179     -0.254623  11 O  pz               23      0.245872   1 Fe dzz       
    59      0.168649   3 O  pz               89      0.169453   5 O  pz        
   119      0.168919   7 O  pz              149      0.168383   9 O  pz        
    29      0.155905   1 Fe dzz             161      0.136555  10 C  s         

 Vector   39  Occ=2.000000D+00  E=-4.641682D-01
              MO Center= -4.9D-03,  6.6D-03, -7.7D-01, r^2= 6.8D+00
   Bfn.  Coefficient  Atom+Function         Bfn.  Coefficient  Atom+Function  
  ----- ------------  ---------------      ----- ------------  ---------------
   178      0.347389  11 O  py               59      0.271429   3 O  pz        
    89     -0.270124   5 O  pz              182      0.209866  11 O  py        
   163      0.201849  10 C  py               44      0.167297   2 C  pz        
    74     -0.166495   4 C  pz               63      0.161211   3 O  pz        
    93     -0.160425   5 O  pz              177     -0.129149  11 O  px        

 Vector   40  Occ=2.000000D+00  E=-4.641503D-01
              MO Center= -5.7D-03, -8.1D-04, -7.7D-01, r^2= 6.8D+00
   Bfn.  Coefficient  Atom+Function         Bfn.  Coefficient  Atom+Function  
  ----- ------------  ---------------      ----- ------------  ---------------
   177      0.346953  11 O  px              119      0.270724   7 O  pz        
   149     -0.271594   9 O  pz              181      0.209618  11 O  px        
   162      0.201552  10 C  px              104      0.166878   6 C  pz        
   134     -0.167413   8 C  pz              123      0.160758   7 O  pz        
   153     -0.161281   9 O  pz              178      0.128945  11 O  py        

 Vector   41  Occ=2.000000D+00  E=-4.606590D-01
              MO Center=  5.9D-03, -2.8D-03,  6.2D-01, r^2= 6.9D+00
   Bfn.  Coefficient  Atom+Function         Bfn.  Coefficient  Atom+Function  
  ----- ------------  ---------------      ----- ------------  ---------------
   119     -0.273186   7 O  pz               59      0.271585   3 O  pz        
    89      0.272514   5 O  pz              149     -0.272444   9 O  pz        
   123     -0.163588   7 O  pz               63      0.162652   3 O  pz        
    93      0.163210   5 O  pz              153     -0.163143   9 O  pz        
    19     -0.152544   1 Fe dxy              74      0.143784   4 C  pz        

 Vector   42  Occ=2.000000D+00  E=-4.553205D-01
              MO Center=  5.2D-04, -3.3D-04,  5.6D-01, r^2= 7.5D+00
   Bfn.  Coefficient  Atom+Function         Bfn.  Coefficient  Atom+Function  
  ----- ------------  ---------------      ----- ------------  ---------------
    57      0.256326   3 O  px               87     -0.256109   5 O  px        
   118     -0.256432   7 O  py              148      0.256295   9 O  py        
    61      0.156857   3 O  px               91     -0.156733   5 O  px        
   122     -0.156882   7 O  py              152      0.156823   9 O  py        
    42      0.144514   2 C  px               72     -0.144620   4 C  px        

 Vector   43  Occ=2.000000D+00  E=-4.340473D-01
              MO Center=  1.9D-03, -2.0D-03,  4.2D-01, r^2= 5.7D+00
   Bfn.  Coefficient  Atom+Function         Bfn.  Coefficient  Atom+Function  
  ----- ------------  ---------------      ----- ------------  ---------------
    57      0.255690   3 O  px               87      0.256079   5 O  px        
   105     -0.240159   6 C  s               135      0.240134   8 C  s         
   102      0.214368   6 C  px              132      0.214246   8 C  px        
   117     -0.184708   7 O  px              147     -0.184581   9 O  px        
    20     -0.168118   1 Fe dxz              61      0.158841   3 O  px        

 Vector   44  Occ=2.000000D+00  E=-4.339963D-01
              MO Center=  1.7D-03, -1.3D-04,  4.2D-01, r^2= 5.7D+00
   Bfn.  Coefficient  Atom+Function         Bfn.  Coefficient  Atom+Function  
  ----- ------------  ---------------      ----- ------------  ---------------
   118     -0.256189   7 O  py              148     -0.255937   9 O  py        
    45      0.240140   2 C  s                75     -0.240164   4 C  s         
    43     -0.214285   2 C  py               73     -0.214369   4 C  py        
    58      0.184461   3 O  py               88      0.184440   5 O  py        
    22      0.167314   1 Fe dyz             122     -0.159148   7 O  py        

 Vector   45  Occ=2.000000D+00  E=-3.271526D-01
              MO Center=  3.8D-04, -2.4D-04,  2.6D-01, r^2= 3.0D+00
   Bfn.  Coefficient  Atom+Function         Bfn.  Coefficient  Atom+Function  
  ----- ------------  ---------------      ----- ------------  ---------------
    19      0.571984   1 Fe dxy              18     -0.390357   1 Fe dxx       
    21      0.390344   1 Fe dyy              25      0.373399   1 Fe dxy       
    24     -0.254811   1 Fe dxx              27      0.254831   1 Fe dyy       
    57     -0.161925   3 O  px               87      0.161890   5 O  px        
   118     -0.161936   7 O  py              148      0.161956   9 O  py        

 Vector   46  Occ=2.000000D+00  E=-3.000329D-01
              MO Center= -2.3D-04,  1.7D-04, -2.2D-01, r^2= 2.6D+00
   Bfn.  Coefficient  Atom+Function         Bfn.  Coefficient  Atom+Function  
  ----- ------------  ---------------      ----- ------------  ---------------
    22      0.876935   1 Fe dyz              28      0.569689   1 Fe dyz       
    20     -0.398209   1 Fe dxz              26     -0.258686   1 Fe dxz       
   178      0.191675  11 O  py               59     -0.175359   3 O  pz        
    89      0.175290   5 O  pz              182      0.165624  11 O  py        
    63     -0.155133   3 O  pz               93      0.155087   5 O  pz        

 Vector   47  Occ=2.000000D+00  E=-2.999371D-01
              MO Center= -2.2D-04,  1.1D-04, -2.2D-01, r^2= 2.6D+00
   Bfn.  Coefficient  Atom+Function         Bfn.  Coefficient  Atom+Function  
  ----- ------------  ---------------      ----- ------------  ---------------
    20      0.876652   1 Fe dxz              26      0.569517   1 Fe dxz       
    22      0.398024   1 Fe dyz              28      0.258582   1 Fe dyz       
   177      0.191732  11 O  px              119     -0.175287   7 O  pz        
   149      0.175323   9 O  pz              181      0.165693  11 O  px        
   123     -0.155061   7 O  pz              153      0.155086   9 O  pz        

 Vector   48  Occ=2.000000D+00  E=-2.372237D-01
              MO Center=  1.0D-03, -6.2D-04,  4.5D-01, r^2= 3.4D+00
   Bfn.  Coefficient  Atom+Function         Bfn.  Coefficient  Atom+Function  
  ----- ------------  ---------------      ----- ------------  ---------------
    23      0.444115   1 Fe dzz              13      0.273664   1 Fe pz        
    29      0.271288   1 Fe dzz              10     -0.236387   1 Fe s         
    18     -0.214470   1 Fe dxx              21     -0.214060   1 Fe dyy       
    59     -0.160672   3 O  pz               89     -0.160881   5 O  pz        
   119     -0.160972   7 O  pz              149     -0.160835   9 O  pz        

 Vector   49  Occ=0.000000D+00  E=-5.573367D-02
              MO Center=  1.9D-03, -1.2D-03,  3.8D-01, r^2= 4.1D+00
   Bfn.  Coefficient  Atom+Function         Bfn.  Coefficient  Atom+Function  
  ----- ------------  ---------------      ----- ------------  ---------------
    19      0.460813   1 Fe dxy              18     -0.314419   1 Fe dxx       
    21      0.314320   1 Fe dyy              25      0.255968   1 Fe dxy       
    42     -0.197631   2 C  px               72      0.198000   4 C  px        
   103     -0.197717   6 C  py              133      0.197490   8 C  py        
    46     -0.192237   2 C  px               76      0.192550   4 C  px        

 Vector   50  Occ=0.000000D+00  E=-4.521803D-02
              MO Center=  2.9D-04,  3.9D-04,  4.4D-01, r^2= 5.2D+00
   Bfn.  Coefficient  Atom+Function         Bfn.  Coefficient  Atom+Function  
  ----- ------------  ---------------      ----- ------------  ---------------
    42      0.253201   2 C  px               72      0.252696   4 C  px        
    46      0.242886   2 C  px               76      0.242449   4 C  px        
   103      0.221988   6 C  py              133      0.222282   8 C  py        
    61     -0.200177   3 O  px               91     -0.199837   5 O  px        
    57     -0.197082   3 O  px               87     -0.196732   5 O  px        

 Vector   51  Occ=0.000000D+00  E=-4.517478D-02
              MO Center= -4.3D-04, -4.7D-04,  4.4D-01, r^2= 5.2D+00
   Bfn.  Coefficient  Atom+Function         Bfn.  Coefficient  Atom+Function  
  ----- ------------  ---------------      ----- ------------  ---------------
   103      0.252601   6 C  py              133      0.252615   8 C  py        
   107      0.242343   6 C  py              137      0.242432   8 C  py        
    42     -0.222111   2 C  px               72     -0.222168   4 C  px        
   122     -0.199760   7 O  py              152     -0.199808   9 O  py        
   118     -0.196660   7 O  py              148     -0.196714   9 O  py        

 Vector   52  Occ=0.000000D+00  E=-3.192358D-02
              MO Center= -3.9D-02,  6.4D-02, -1.1D+00, r^2= 2.9D+00
   Bfn.  Coefficient  Atom+Function         Bfn.  Coefficient  Atom+Function  
  ----- ------------  ---------------      ----- ------------  ---------------
    22      0.636913   1 Fe dyz             163      0.417270  10 C  py        
   167      0.388721  10 C  py               28      0.354616   1 Fe dyz       
   178     -0.311401  11 O  py              182     -0.306413  11 O  py        
    20     -0.265693   1 Fe dxz              45     -0.226221   2 C  s         
    75      0.201156   4 C  s               162     -0.174372  10 C  px        

 Vector   53  Occ=0.000000D+00  E=-3.186538D-02
              MO Center= -3.9D-02, -2.1D-02, -1.1D+00, r^2= 2.9D+00
   Bfn.  Coefficient  Atom+Function         Bfn.  Coefficient  Atom+Function  
  ----- ------------  ---------------      ----- ------------  ---------------
    20      0.638676   1 Fe dxz             162      0.419054  10 C  px        
   166      0.390333  10 C  px               26      0.355606   1 Fe dxz       
   177     -0.312627  11 O  px              181     -0.307649  11 O  px        
    22      0.264683   1 Fe dyz             135      0.221532   8 C  s         
   105     -0.206600   6 C  s               163      0.173483  10 C  py        

 Vector   54  Occ=0.000000D+00  E=-3.138987D-02
              MO Center=  7.1D-02, -3.8D-02,  6.1D-01, r^2= 4.5D+00
   Bfn.  Coefficient  Atom+Function         Bfn.  Coefficient  Atom+Function  
  ----- ------------  ---------------      ----- ------------  ---------------
    19      0.335636   1 Fe dxy              74      0.282708   4 C  pz        
   104     -0.277496   6 C  pz               44      0.269253   2 C  pz        
    78      0.268012   4 C  pz              134     -0.268170   8 C  pz        
   108     -0.262700   6 C  pz               48      0.250309   2 C  pz        
   138     -0.250369   8 C  pz               75      0.205190   4 C  s         

 Vector   55  Occ=0.000000D+00  E=-2.771619D-02
              MO Center=  7.6D-03, -5.3D-03, -2.9D-02, r^2= 3.6D+00
   Bfn.  Coefficient  Atom+Function         Bfn.  Coefficient  Atom+Function  
  ----- ------------  ---------------      ----- ------------  ---------------
   165      0.539720  10 C  s                23     -0.472615   1 Fe dzz       
    29     -0.253555   1 Fe dzz              21      0.234318   1 Fe dyy       
    18      0.231086   1 Fe dxx             104      0.216520   6 C  pz        
    74      0.214153   4 C  pz              134      0.214884   8 C  pz        
    44      0.211034   2 C  pz               14     -0.185664   1 Fe s         

 Vector   56  Occ=0.000000D+00  E=-1.588514D-02
              MO Center=  1.3D-03,  4.0D-04, -3.8D-02, r^2= 5.2D+00
   Bfn.  Coefficient  Atom+Function         Bfn.  Coefficient  Atom+Function  
  ----- ------------  ---------------      ----- ------------  ---------------
   104      0.342448   6 C  pz              134     -0.341711   8 C  pz        
   108      0.312252   6 C  pz              138     -0.311627   8 C  pz        
   162      0.272949  10 C  px              123     -0.231510   7 O  pz        
   153      0.230938   9 O  pz              119     -0.223039   7 O  pz        
   149      0.222502   9 O  pz               20     -0.210574   1 Fe dxz       

 Vector   57  Occ=0.000000D+00  E=-1.580725D-02
              MO Center= -1.2D-03, -1.5D-04, -4.2D-02, r^2= 5.2D+00
   Bfn.  Coefficient  Atom+Function         Bfn.  Coefficient  Atom+Function  
  ----- ------------  ---------------      ----- ------------  ---------------
    44      0.341617   2 C  pz               74     -0.342119   4 C  pz        
    48      0.311415   2 C  pz               78     -0.311897   4 C  pz        
   163      0.273877  10 C  py               63     -0.230799   3 O  pz        
    93      0.231213   5 O  pz               59     -0.222340   3 O  pz        
    89      0.222699   5 O  pz              167      0.212490  10 C  py        

 Vector   58  Occ=0.000000D+00  E=-1.064071D-02
              MO Center= -3.2D-03,  2.2D-03,  9.0D-02, r^2= 2.7D+00
   Bfn.  Coefficient  Atom+Function         Bfn.  Coefficient  Atom+Function  
  ----- ------------  ---------------      ----- ------------  ---------------
    19      0.812984   1 Fe dxy              25      0.462134   1 Fe dxy       
    45      0.426858   2 C  s                75      0.426366   4 C  s         
   105     -0.426661   6 C  s               135     -0.426913   8 C  s         
    18      0.298336   1 Fe dxx              21     -0.297388   1 Fe dyy       
    60     -0.232332   3 O  s                90     -0.232213   5 O  s         

 Vector   59  Occ=0.000000D+00  E= 2.384523D-02
              MO Center= -1.1D-03,  6.9D-04, -2.2D-01, r^2= 9.4D+00
   Bfn.  Coefficient  Atom+Function         Bfn.  Coefficient  Atom+Function  
  ----- ------------  ---------------      ----- ------------  ---------------
    14      2.155541   1 Fe s                10      0.534297   1 Fe s         
   165     -0.385240  10 C  s                45     -0.318526   2 C  s         
    75     -0.317932   4 C  s               105     -0.317927   6 C  s         
   135     -0.318257   8 C  s               180     -0.210054  11 O  s         
   168     -0.191048  10 C  pz               17     -0.156299   1 Fe pz        

 Vector   60  Occ=0.000000D+00  E= 3.465354D-02
              MO Center=  1.6D-03, -9.1D-04,  4.6D-01, r^2= 5.1D+00
   Bfn.  Coefficient  Atom+Function         Bfn.  Coefficient  Atom+Function  
  ----- ------------  ---------------      ----- ------------  ---------------
    42      0.336490   2 C  px               72     -0.336622   4 C  px        
   103     -0.336588   6 C  py              133      0.336350   8 C  py        
    46      0.271753   2 C  px               76     -0.271880   4 C  px        
   107     -0.272034   6 C  py              137      0.271827   8 C  py        
    61     -0.192384   3 O  px               91      0.192501   5 O  px        

 Vector   61  Occ=0.000000D+00  E= 5.589815D-02
              MO Center=  4.4D-04, -6.3D-04, -2.2D-02, r^2= 1.2D+01
   Bfn.  Coefficient  Atom+Function         Bfn.  Coefficient  Atom+Function  
  ----- ------------  ---------------      ----- ------------  ---------------
    16      1.556155   1 Fe py               15     -0.582407   1 Fe px        
    45     -0.451559   2 C  s                75      0.452160   4 C  s         
   167     -0.225986  10 C  py               12     -0.207514   1 Fe py        
   107     -0.156148   6 C  py              137     -0.156034   8 C  py        
    60     -0.146707   3 O  s                90      0.146823   5 O  s         

 Vector   62  Occ=0.000000D+00  E= 5.591271D-02
              MO Center=  6.1D-04,  3.5D-06, -2.3D-02, r^2= 1.2D+01
   Bfn.  Coefficient  Atom+Function         Bfn.  Coefficient  Atom+Function  
  ----- ------------  ---------------      ----- ------------  ---------------
    15      1.556077   1 Fe px               16      0.582483   1 Fe py        
   105     -0.452122   6 C  s               135      0.451690   8 C  s         
   166     -0.225992  10 C  px               11     -0.207638   1 Fe px        
    46     -0.156033   2 C  px               76     -0.156104   4 C  px        
   120     -0.146688   7 O  s               150      0.146600   9 O  s         

 Vector   63  Occ=0.000000D+00  E= 5.902098D-02
              MO Center=  1.2D-03, -7.3D-04,  7.8D-01, r^2= 1.1D+01
   Bfn.  Coefficient  Atom+Function         Bfn.  Coefficient  Atom+Function  
  ----- ------------  ---------------      ----- ------------  ---------------
    17      1.533860   1 Fe pz              165      0.453386  10 C  s         
    13     -0.345356   1 Fe pz               48     -0.168449   2 C  pz        
    78     -0.168505   4 C  pz              108     -0.168605   6 C  pz        
   138     -0.168572   8 C  pz               10      0.140319   1 Fe s         
    14      0.130369   1 Fe s                44     -0.104252   2 C  pz        

 Vector   64  Occ=0.000000D+00  E= 2.540576D-01
              MO Center=  9.1D-04, -5.5D-04,  5.6D-01, r^2= 5.3D+00
   Bfn.  Coefficient  Atom+Function         Bfn.  Coefficient  Atom+Function  
  ----- ------------  ---------------      ----- ------------  ---------------
    45      1.431930   2 C  s                75      1.432461   4 C  s         
   105      1.433233   6 C  s               135      1.432853   8 C  s         
    10      1.013666   1 Fe s                60     -0.926479   3 O  s         
    90     -0.926672   5 O  s               120     -0.927664   7 O  s         
   150     -0.927501   9 O  s               168      0.901136  10 C  pz        

 Vector   65  Occ=0.000000D+00  E= 3.580485D-01
              MO Center= -8.1D-04,  2.6D-04,  4.2D-01, r^2= 8.2D+00
   Bfn.  Coefficient  Atom+Function         Bfn.  Coefficient  Atom+Function  
  ----- ------------  ---------------      ----- ------------  ---------------
    60     -1.510214   3 O  s                90     -1.507190   5 O  s         
   120      1.505391   7 O  s               150      1.507658   9 O  s         
    47      1.419178   2 C  py               77     -1.416630   4 C  py        
   106     -1.416274   6 C  px              136      1.417314   8 C  px        
    45      0.901197   2 C  s                75      0.897617   4 C  s         

 Vector   66  Occ=0.000000D+00  E= 3.713845D-01
              MO Center=  9.1D-03, -6.1D-03, -1.4D+00, r^2= 4.6D+00
   Bfn.  Coefficient  Atom+Function         Bfn.  Coefficient  Atom+Function  
  ----- ------------  ---------------      ----- ------------  ---------------
   165      2.655694  10 C  s               180     -2.429086  11 O  s         
   168     -2.218094  10 C  pz               14     -1.221574   1 Fe s         
   183     -1.050007  11 O  pz               17      0.724825   1 Fe pz        
    75      0.608980   4 C  s               105      0.602559   6 C  s         
   135      0.576987   8 C  s                45      0.563673   2 C  s         

 Vector   67  Occ=0.000000D+00  E= 3.754857D-01
              MO Center=  2.8D-03,  1.3D-03,  2.0D-01, r^2= 7.5D+00
   Bfn.  Coefficient  Atom+Function         Bfn.  Coefficient  Atom+Function  
  ----- ------------  ---------------      ----- ------------  ---------------
   105      1.472602   6 C  s               135     -1.468693   8 C  s         
   120     -1.437913   7 O  s               150      1.435150   9 O  s         
    45      1.195824   2 C  s                75     -1.194084   4 C  s         
    60     -1.166056   3 O  s                90      1.168233   5 O  s         
    16     -1.136889   1 Fe py               47      1.126445   2 C  py        

 Vector   68  Occ=0.000000D+00  E= 3.755241D-01
              MO Center= -1.1D-02,  4.6D-03,  2.0D-01, r^2= 7.5D+00
   Bfn.  Coefficient  Atom+Function         Bfn.  Coefficient  Atom+Function  
  ----- ------------  ---------------      ----- ------------  ---------------
    45      1.479375   2 C  s                75     -1.462537   4 C  s         
    60     -1.437434   3 O  s                90      1.436250   5 O  s         
   135      1.202765   8 C  s               105     -1.185414   6 C  s         
   120      1.165228   7 O  s               150     -1.167710   9 O  s         
    15      1.136068   1 Fe px               47      1.127491   2 C  py        

 Vector   69  Occ=0.000000D+00  E= 4.843006D-01
              MO Center=  1.6D-02, -1.0D-02,  8.8D-01, r^2= 5.2D+00
   Bfn.  Coefficient  Atom+Function         Bfn.  Coefficient  Atom+Function  
  ----- ------------  ---------------      ----- ------------  ---------------
    10      2.041232   1 Fe s                13     -1.840646   1 Fe pz        
    14      1.136142   1 Fe s                17      0.912297   1 Fe pz        
   168     -0.704090  10 C  pz               47     -0.689072   2 C  py        
   136      0.685450   8 C  px               60      0.670240   3 O  s         
   106     -0.665406   6 C  px              150      0.665539   9 O  s         

 Vector   70  Occ=0.000000D+00  E= 4.859583D-01
              MO Center= -7.7D-03,  1.4D-02, -2.5D-01, r^2= 5.2D+00
   Bfn.  Coefficient  Atom+Function         Bfn.  Coefficient  Atom+Function  
  ----- ------------  ---------------      ----- ------------  ---------------
    16      0.586194   1 Fe py               77     -0.569129   4 C  py        
   167     -0.569337  10 C  py               44     -0.561217   2 C  pz        
    90     -0.561536   5 O  s                75      0.554580   4 C  s         
    74      0.546684   4 C  pz               47     -0.534491   2 C  py        
    45     -0.531804   2 C  s               163      0.529298  10 C  py        

 Vector   71  Occ=0.000000D+00  E= 4.860181D-01
              MO Center= -8.4D-03, -4.0D-03, -2.5D-01, r^2= 5.2D+00
   Bfn.  Coefficient  Atom+Function         Bfn.  Coefficient  Atom+Function  
  ----- ------------  ---------------      ----- ------------  ---------------
    15      0.588304   1 Fe px              166     -0.569629  10 C  px        
   106     -0.563515   6 C  px              120      0.556134   7 O  s         
   134      0.557969   8 C  pz              104     -0.549655   6 C  pz        
   105     -0.551528   6 C  s               136     -0.544178   8 C  px        
   135      0.538411   8 C  s               150     -0.535873   9 O  s         

 Vector   72  Occ=0.000000D+00  E= 5.076215D-01
              MO Center= -2.8D-04,  4.4D-05,  4.4D-01, r^2= 5.2D+00
   Bfn.  Coefficient  Atom+Function         Bfn.  Coefficient  Atom+Function  
  ----- ------------  ---------------      ----- ------------  ---------------
    42      0.459822   2 C  px               72     -0.459340   4 C  px        
   103      0.459398   6 C  py              133     -0.459780   8 C  py        
    46     -0.399584   2 C  px               76      0.398561   4 C  px        
   107     -0.398084   6 C  py              137      0.398517   8 C  py        
    43      0.233291   2 C  py               73     -0.233012   4 C  py        

 Vector   73  Occ=0.000000D+00  E= 5.781158D-01
              MO Center=  1.6D-03, -1.0D-03, -4.3D-01, r^2= 4.4D+00
   Bfn.  Coefficient  Atom+Function         Bfn.  Coefficient  Atom+Function  
  ----- ------------  ---------------      ----- ------------  ---------------
    10      2.563465   1 Fe s                14      1.346599   1 Fe s         
   165     -0.959816  10 C  s               180      0.551547  11 O  s         
   161      0.497362  10 C  s                13     -0.465881   1 Fe pz        
   164      0.448900  10 C  pz               29      0.385741   1 Fe dzz       
    24      0.372384   1 Fe dxx              27      0.372246   1 Fe dyy       

 Vector   74  Occ=0.000000D+00  E= 5.859980D-01
              MO Center=  1.7D-04, -8.4D-04,  3.5D-01, r^2= 6.0D+00
   Bfn.  Coefficient  Atom+Function         Bfn.  Coefficient  Atom+Function  
  ----- ------------  ---------------      ----- ------------  ---------------
    11      0.618961   1 Fe px               46      0.616547   2 C  px        
    76      0.617079   4 C  px               15     -0.574683   1 Fe px        
    42     -0.465042   2 C  px               72     -0.465980   4 C  px        
   107     -0.327813   6 C  py              137     -0.327096   8 C  py        
   103      0.316470   6 C  py              133      0.316182   8 C  py        

 Vector   75  Occ=0.000000D+00  E= 5.860845D-01
              MO Center=  4.3D-04,  4.8D-04,  3.5D-01, r^2= 6.0D+00
   Bfn.  Coefficient  Atom+Function         Bfn.  Coefficient  Atom+Function  
  ----- ------------  ---------------      ----- ------------  ---------------
    12      0.619375   1 Fe py              107      0.615502   6 C  py        
   137      0.615776   8 C  py               16     -0.574721   1 Fe py        
   103     -0.465306   6 C  py              133     -0.465556   8 C  py        
    46      0.328173   2 C  px               76      0.328079   4 C  px        
    42     -0.317123   2 C  px               72     -0.316629   4 C  px        

 Vector   76  Occ=0.000000D+00  E= 6.046757D-01
              MO Center= -1.5D-04, -6.0D-06,  3.5D-01, r^2= 5.9D+00
   Bfn.  Coefficient  Atom+Function         Bfn.  Coefficient  Atom+Function  
  ----- ------------  ---------------      ----- ------------  ---------------
    48      0.732365   2 C  pz               78      0.731328   4 C  pz        
   108     -0.729921   6 C  pz              138     -0.730630   8 C  pz        
    44     -0.472818   2 C  pz               74     -0.472585   4 C  pz        
   104      0.471733   6 C  pz              134      0.471919   8 C  pz        
    77     -0.163253   4 C  py              106     -0.162390   6 C  px        

 Vector   77  Occ=0.000000D+00  E= 6.134838D-01
              MO Center=  1.6D-03,  1.3D-03, -1.0D-01, r^2= 5.7D+00
   Bfn.  Coefficient  Atom+Function         Bfn.  Coefficient  Atom+Function  
  ----- ------------  ---------------      ----- ------------  ---------------
   166      0.660739  10 C  px               11      0.623324   1 Fe px        
   108      0.607224   6 C  pz              138     -0.605076   8 C  pz        
   162     -0.527173  10 C  px               46     -0.495504   2 C  px        
    76     -0.495373   4 C  px              104     -0.342144   6 C  pz        
   134      0.340625   8 C  pz              167      0.327702  10 C  py        

 Vector   78  Occ=0.000000D+00  E= 6.135507D-01
              MO Center=  1.1D-03, -2.9D-03, -1.0D-01, r^2= 5.7D+00
   Bfn.  Coefficient  Atom+Function         Bfn.  Coefficient  Atom+Function  
  ----- ------------  ---------------      ----- ------------  ---------------
   167      0.660656  10 C  py               12      0.622565   1 Fe py        
    78     -0.607594   4 C  pz               48      0.604407   2 C  pz        
   163     -0.526974  10 C  py              107     -0.497070   6 C  py        
   137     -0.497155   8 C  py               74      0.342196   4 C  pz        
    44     -0.339912   2 C  pz              166     -0.327594  10 C  px        

 Vector   79  Occ=0.000000D+00  E= 6.764801D-01
              MO Center=  2.0D-04, -2.1D-04,  4.5D-01, r^2= 6.0D+00
   Bfn.  Coefficient  Atom+Function         Bfn.  Coefficient  Atom+Function  
  ----- ------------  ---------------      ----- ------------  ---------------
    47      0.731296   2 C  py               77     -0.730628   4 C  py        
   106     -0.731715   6 C  px              136      0.731599   8 C  px        
    43     -0.439637   2 C  py               73      0.439207   4 C  py        
   102      0.439224   6 C  px              132     -0.439246   8 C  px        
    46     -0.370747   2 C  px               76      0.371078   4 C  px        

 Vector   80  Occ=0.000000D+00  E= 6.901160D-01
              MO Center= -8.2D-04,  5.4D-04, -2.1D-01, r^2= 6.7D+00
   Bfn.  Coefficient  Atom+Function         Bfn.  Coefficient  Atom+Function  
  ----- ------------  ---------------      ----- ------------  ---------------
    10      1.423896   1 Fe s                14      1.015558   1 Fe s         
    47     -0.735760   2 C  py               77      0.735625   4 C  py        
   106     -0.735811   6 C  px              136      0.735897   8 C  px        
   164      0.637533  10 C  pz               45     -0.601663   2 C  s         
    75     -0.602276   4 C  s               105     -0.602157   6 C  s         

 Vector   81  Occ=0.000000D+00  E= 7.050756D-01
              MO Center= -2.0D-03,  1.4D-03, -4.0D-01, r^2= 6.4D+00
   Bfn.  Coefficient  Atom+Function         Bfn.  Coefficient  Atom+Function  
  ----- ------------  ---------------      ----- ------------  ---------------
    13      1.455078   1 Fe pz               10      1.251100   1 Fe s         
    14      0.839365   1 Fe s               161      0.765531  10 C  s         
   168      0.688962  10 C  pz               48     -0.580888   2 C  pz        
    78     -0.580161   4 C  pz              108     -0.581317   6 C  pz        
   138     -0.581678   8 C  pz               45     -0.494209   2 C  s         

 Vector   82  Occ=0.000000D+00  E= 7.210282D-01
              MO Center= -8.1D-04, -2.8D-04,  5.3D-01, r^2= 7.2D+00
   Bfn.  Coefficient  Atom+Function         Bfn.  Coefficient  Atom+Function  
  ----- ------------  ---------------      ----- ------------  ---------------
    47      0.968492   2 C  py               77      0.970485   4 C  py        
    16     -0.640835   1 Fe py               45      0.569306   2 C  s         
    75     -0.569427   4 C  s                60     -0.539155   3 O  s         
    90      0.539406   5 O  s               106      0.492704   6 C  px        
   136      0.493182   8 C  px               41     -0.477435   2 C  s         

 Vector   83  Occ=0.000000D+00  E= 7.210745D-01
              MO Center=  8.2D-04,  6.4D-05,  5.3D-01, r^2= 7.2D+00
   Bfn.  Coefficient  Atom+Function         Bfn.  Coefficient  Atom+Function  
  ----- ------------  ---------------      ----- ------------  ---------------
   106      0.969894   6 C  px              136      0.969131   8 C  px        
    15     -0.640892   1 Fe px              105      0.569417   6 C  s         
   135     -0.569249   8 C  s               120     -0.538863   7 O  s         
   150      0.538722   9 O  s                47     -0.493930   2 C  py        
    77     -0.494069   4 C  py              101     -0.478079   6 C  s         

 Vector   84  Occ=0.000000D+00  E= 7.389024D-01
              MO Center=  1.1D-03, -5.2D-04,  4.8D-01, r^2= 7.6D+00
   Bfn.  Coefficient  Atom+Function         Bfn.  Coefficient  Atom+Function  
  ----- ------------  ---------------      ----- ------------  ---------------
    46      0.732170   2 C  px               76     -0.732703   4 C  px        
   107     -0.732060   6 C  py              137      0.734066   8 C  py        
    47      0.373132   2 C  py              106      0.372362   6 C  px        
    77     -0.370405   4 C  py              136     -0.369574   8 C  px        
    42     -0.351801   2 C  px               72      0.352463   4 C  px        

 Vector   85  Occ=0.000000D+00  E= 7.506578D-01
              MO Center= -1.0D-02,  6.7D-03,  3.1D-01, r^2= 1.2D+01
   Bfn.  Coefficient  Atom+Function         Bfn.  Coefficient  Atom+Function  
  ----- ------------  ---------------      ----- ------------  ---------------
    10      1.494375   1 Fe s               168      1.044474  10 C  pz        
    14      0.903278   1 Fe s               165     -0.687291  10 C  s         
   180      0.621057  11 O  s                62     -0.607306   3 O  py        
[...]
      ----------------------


  Step       Energy      Delta E   Gmax     Grms     Xrms     Xmax   Walltime
  ---- ---------------- -------- -------- -------- -------- -------- --------
@    8   -1830.32444695 -9.9D-07  0.00007  0.00001  0.00028  0.00101    475.8
                                     ok       ok       ok       ok  



                                Z-matrix (autoz)
                                -------- 

 Units are Angstrom for bonds and degrees for angles

      Type          Name      I     J     K     L     M      Value     Gradient
      ----------- --------  ----- ----- ----- ----- ----- ---------- ----------
    1 Stretch                  1     2                       1.80955   -0.00002
    2 Stretch                  1     4                       1.80956   -0.00001
    3 Stretch                  1     6                       1.80954   -0.00001
    4 Stretch                  1     8                       1.80954   -0.00001
    5 Stretch                  1    10                       1.80714   -0.00007
    6 Stretch                  2     3                       1.15023    0.00000
    7 Stretch                  4     5                       1.15023    0.00001
    8 Stretch                  6     7                       1.15025    0.00001
    9 Stretch                  8     9                       1.15024    0.00001
   10 Stretch                 10    11                       1.14939   -0.00002
   11 Bend                     2     1     4               152.46617   -0.00000
   12 Bend                     2     1     6                86.73797    0.00000
   13 Bend                     2     1     8                86.73743    0.00000
   14 Bend                     2     1    10               103.76959    0.00000
   15 Bend                     3     1     4               152.18341   -0.00000
   16 Bend                     3     1     6                86.67083    0.00000
   17 Bend                     3     1     8                86.67309    0.00000
   18 Bend                     3     1    10               104.05235    0.00000
   19 Bend                     4     1     6                86.73790    0.00000
   20 Bend                     4     1     8                86.73803    0.00000
   21 Bend                     4     1    10               103.76424   -0.00000
   22 Bend                     5     1     2               152.18424   -0.00000
   23 Bend                     5     1     6                86.67357    0.00000
   24 Bend                     5     1     8                86.67126    0.00000
   25 Bend                     5     1    10               104.04618   -0.00000
   26 Bend                     6     1     8               152.33039    0.00001
   27 Bend                     6     1    10               103.83325   -0.00000
   28 Bend                     7     1     2                86.67593    0.00000
   29 Bend                     7     1     4                86.67275    0.00000
   30 Bend                     7     1     8               152.05546    0.00001
   31 Bend                     7     1    10               104.10817   -0.00000
   32 Bend                     8     1    10               103.83637   -0.00000
   33 Bend                     9     1     2                86.67244    0.00000
   34 Bend                     9     1     4                86.67559    0.00000
   35 Bend                     9     1     6               152.05492    0.00001
   36 Bend                     9     1    10               104.11184   -0.00000
   37 Bend                    11     1     2               103.77043    0.00000
   38 Bend                    11     1     4               103.76339   -0.00000
   39 Bend                    11     1     6               103.83274   -0.00000
   40 Bend                    11     1     8               103.83687   -0.00000
   41 Torsion                  1     2     4     5        -179.98712    0.00000
   42 Torsion                  1     2     6     7        -179.05450    0.00000
   43 Torsion                  1     2     8     9         179.05512   -0.00000
   44 Torsion                  1     2    10    11        -179.99791    0.00000
   45 Torsion                  1     4     2     3        -179.98523    0.00000
   46 Torsion                  1     4     6     7         179.05723   -0.00000
   47 Torsion                  1     4     8     9        -179.05287    0.00000
   48 Torsion                  1     4    10    11         179.99791   -0.00000
   49 Torsion                  1     6     2     3         179.03052   -0.00000
   50 Torsion                  1     6     4     5        -179.03103    0.00000
   51 Torsion                  1     6     8     9        -179.98659    0.00000
   52 Torsion                  1     6    10    11        -179.99649    0.00000
   53 Torsion                  1     8     2     3        -179.02806    0.00000
   54 Torsion                  1     8     4     5         179.03319   -0.00000
   55 Torsion                  1     8     6     7        -179.98360    0.00000
   56 Torsion                  1     8    10    11         179.99649   -0.00000
   57 Torsion                  1    10     2     3         179.99388   -0.00000
   58 Torsion                  1    10     4     5         179.99471   -0.00000
   59 Torsion                  1    10     6     7         179.99317   -0.00000
   60 Torsion                  1    10     8     9         179.99449   -0.00000



                         Geometry "geometry" -> "geometry"
                         ---------------------------------

 Output coordinates in angstroms (scale by  1.889725989 to convert to a.u.)

  No.       Tag          Charge          X              Y              Z
 ---- ---------------- ---------- -------------- -------------- --------------
    1 Fe                  26.0000    -0.00006442     0.00004189    -0.00661489
    2 C                    6.0000    -0.79426277     1.56728838     0.42636140
    3 O                    8.0000    -1.29739030     2.56033557     0.71573891
    4 C                    6.0000     0.79527250    -1.56792383     0.42165655
    5 O                    8.0000     1.29917349    -2.56145518     0.70801145
    6 C                    6.0000     1.56764369     0.79421267     0.42466549
    7 O                    8.0000     2.56112011     1.29737428     0.71258355
    8 C                    6.0000    -1.56662800    -0.79483786     0.42750806
    9 O                    8.0000    -2.55932706    -1.29848283     0.71725486
   10 C                    6.0000    -0.00238014     0.00148555    -1.81375719
   11 O                    8.0000    -0.00381019     0.00237667    -2.96314474

      Atomic Mass 
      ----------- 

      Fe                55.934900
      C                 12.000000
      O                 15.994910


 Effective nuclear repulsion energy (a.u.)     802.3048283311

            Nuclear Dipole moment (a.u.) 
            ----------------------------
        X                 Y               Z
 ---------------- ---------------- ----------------
    -0.0107239466     0.0068536141    -3.2689028066


                Final and change from initial internal coordinates
                --------------------------------------------------



                                Z-matrix (autoz)
                                -------- 

 Units are Angstrom for bonds and degrees for angles

      Type          Name      I     J     K     L     M      Value       Change
      ----------- --------  ----- ----- ----- ----- ----- ---------- ----------
    1 Stretch                  1     2                       1.80955    0.05279
    2 Stretch                  1     4                       1.80956    0.05283
    3 Stretch                  1     6                       1.80954    0.05298
    4 Stretch                  1     8                       1.80954    0.05294
    5 Stretch                  1    10                       1.80714    0.03098
    6 Stretch                  2     3                       1.15023   -0.00634
    7 Stretch                  4     5                       1.15023   -0.00636
    8 Stretch                  6     7                       1.15025   -0.00638
    9 Stretch                  8     9                       1.15024   -0.00637
   10 Stretch                 10    11                       1.14939   -0.00077
   11 Bend                     2     1     4               152.46617   -6.48836
   12 Bend                     2     1     6                86.73797   -1.33592
   13 Bend                     2     1     8                86.73743   -1.36065
   14 Bend                     2     1    10               103.76959    3.28394
   15 Bend                     3     1     4               152.18341   -7.39848
   16 Bend                     3     1     6                86.67083   -1.51048
   17 Bend                     3     1     8                86.67309   -1.54421
   18 Bend                     3     1    10               104.05235    4.19406
   19 Bend                     4     1     6                86.73790   -1.34135
   20 Bend                     4     1     8                86.73803   -1.33256
   21 Bend                     4     1    10               103.76424    3.20442
   22 Bend                     5     1     2               152.18424   -7.38681
   23 Bend                     5     1     6                86.67357   -1.52127
   24 Bend                     5     1     8                86.67126   -1.50639
   25 Bend                     5     1    10               104.04618    4.10287
   26 Bend                     6     1     8               152.33039   -6.53220
   27 Bend                     6     1    10               103.83325    3.24135
   28 Bend                     7     1     2                86.67593   -1.50831
   29 Bend                     7     1     4                86.67275   -1.52066
   30 Bend                     7     1     8               152.05546   -7.43151
   31 Bend                     7     1    10               104.10817    4.14066
   32 Bend                     8     1    10               103.83637    3.29086
   33 Bend                     9     1     2                86.67244   -1.54172
   34 Bend                     9     1     4                86.67559   -1.50553
   35 Bend                     9     1     6               152.05492   -7.43775
   36 Bend                     9     1    10               104.11184    4.19641
   37 Bend                    11     1     2               103.77043    3.29237
   38 Bend                    11     1     4               103.76339    3.19599
   39 Bend                    11     1     6               103.83274    3.23720
   40 Bend                    11     1     8               103.83687    3.29500
   41 Torsion                  1     2     4     5        -179.98712   -0.05325
   42 Torsion                  1     2     6     7        -179.05450    3.10830
   43 Torsion                  1     2     8     9         179.05512   -3.12542
   44 Torsion                  1     2    10    11        -179.99791    0.01667
   45 Torsion                  1     4     2     3        -179.98523   -0.08589
   46 Torsion                  1     4     6     7         179.05723   -3.10358
   47 Torsion                  1     4     8     9        -179.05287    3.13022
   48 Torsion                  1     4    10    11         179.99791   -0.01669
   49 Torsion                  1     6     2     3         179.03052   -3.14498
   50 Torsion                  1     6     4     5        -179.03103    3.10116
   51 Torsion                  1     6     8     9        -179.98659    0.06393
   52 Torsion                  1     6    10    11        -179.99649    0.03392
   53 Torsion                  1     8     2     3        -179.02806    3.14135
   54 Torsion                  1     8     4     5         179.03319   -3.10355
   55 Torsion                  1     8     6     7        -179.98360    0.04214
   56 Torsion                  1     8    10    11         179.99649   -0.03389
   57 Torsion                  1    10     2     3         179.99388    0.01752
   58 Torsion                  1    10     4     5         179.99471    0.01020
   59 Torsion                  1    10     6     7         179.99317   -0.01263
   60 Torsion                  1    10     8     9         179.99449   -0.01766

 ==============================================================================
                                internuclear distances
 ------------------------------------------------------------------------------
       center one      |      center two      | atomic units |  angstroms
 ------------------------------------------------------------------------------
    2 C                |   1 Fe               |     3.41956  |     1.80955
    3 O                |   2 C                |     2.17361  |     1.15023
    4 C                |   1 Fe               |     3.41957  |     1.80956
    5 O                |   4 C                |     2.17361  |     1.15023
    6 C                |   1 Fe               |     3.41953  |     1.80954
    7 O                |   6 C                |     2.17365  |     1.15025
    8 C                |   1 Fe               |     3.41953  |     1.80954
    9 O                |   8 C                |     2.17365  |     1.15024
   10 C                |   1 Fe               |     3.41501  |     1.80714
   11 O                |  10 C                |     2.17203  |     1.14939
 ------------------------------------------------------------------------------
                         number of included internuclear distances:         10
 ==============================================================================



 ==============================================================================
                                 internuclear angles
 ------------------------------------------------------------------------------
        center 1       |       center 2       |       center 3       |  degrees
 ------------------------------------------------------------------------------
    2 C                |   1 Fe               |   4 C                |   152.47
    2 C                |   1 Fe               |   6 C                |    86.74
    2 C                |   1 Fe               |   8 C                |    86.74
    2 C                |   1 Fe               |  10 C                |   103.77
    4 C                |   1 Fe               |   6 C                |    86.74
    4 C                |   1 Fe               |   8 C                |    86.74
    4 C                |   1 Fe               |  10 C                |   103.76
    6 C                |   1 Fe               |   8 C                |   152.33
    6 C                |   1 Fe               |  10 C                |   103.83
    8 C                |   1 Fe               |  10 C                |   103.84
    1 Fe               |   2 C                |   3 O                |   179.27
    1 Fe               |   4 C                |   5 O                |   179.27
    1 Fe               |   6 C                |   7 O                |   179.29
    1 Fe               |   8 C                |   9 O                |   179.29
    1 Fe               |  10 C                |  11 O                |   180.00
 ------------------------------------------------------------------------------
                            number of included internuclear angles:         15
 ==============================================================================




 Task  times  cpu:      572.0s     wall:      475.8s


                                NWChem Input Module
                                -------------------


 Summary of allocated global arrays
-----------------------------------
  No active global arrays


MA_summarize_allocated_blocks: starting scan ...
MA_summarize_allocated_blocks: scan completed: 0 heap blocks, 0 stack blocks
MA usage statistics:

	allocation statistics:
					      heap	     stack
					      ----	     -----
	current number of blocks	         0	         0
	maximum number of blocks	        23	        53
	current total bytes		         0	         0
	maximum total bytes		   4016376	  50676664
	maximum total K-bytes		      4017	     50677
	maximum total M-bytes		         5	        51


                                     CITATION
                                     --------
                Please cite the following reference when publishing
                           results obtained with NWChem:

          E. Apra, E. J. Bylaska, W. A. de Jong, N. Govind, K. Kowalski,
       T. P. Straatsma, M. Valiev, H. J. J. van Dam, Y. Alexeev, J. Anchell,
       V. Anisimov, F. W. Aquino, R. Atta-Fynn, J. Autschbach, N. P. Bauman,
     J. C. Becca, D. E. Bernholdt, K. Bhaskaran-Nair, S. Bogatko, P. Borowski,
         J. Boschen, J. Brabec, A. Bruner, E. Cauet, Y. Chen, G. N. Chuev,
      C. J. Cramer, J. Daily, M. J. O. Deegan, T. H. Dunning Jr., M. Dupuis,
   K. G. Dyall, G. I. Fann, S. A. Fischer, A. Fonari, H. Fruchtl, L. Gagliardi,
      J. Garza, N. Gawande, S. Ghosh, K. Glaesemann, A. W. Gotz, J. Hammond,
       V. Helms, E. D. Hermes, K. Hirao, S. Hirata, M. Jacquelin, L. Jensen,
   B. G. Johnson, H. Jonsson, R. A. Kendall, M. Klemm, R. Kobayashi, V. Konkov,
      S. Krishnamoorthy, M. Krishnan, Z. Lin, R. D. Lins, R. J. Littlefield,
      A. J. Logsdail, K. Lopata, W. Ma, A. V. Marenich, J. Martin del Campo,
   D. Mejia-Rodriguez, J. E. Moore, J. M. Mullin, T. Nakajima, D. R. Nascimento,
    J. A. Nichols, P. J. Nichols, J. Nieplocha, A. Otero-de-la-Roza, B. Palmer,
    A. Panyala, T. Pirojsirikul, B. Peng, R. Peverati, J. Pittner, L. Pollack,
   R. M. Richard, P. Sadayappan, G. C. Schatz, W. A. Shelton, D. W. Silverstein,
   D. M. A. Smith, T. A. Soares, D. Song, M. Swart, H. L. Taylor, G. S. Thomas,
            V. Tipparaju, D. G. Truhlar, K. Tsemekhman, T. Van Voorhis,
      A. Vazquez-Mayagoitia, P. Verma, O. Villa, A. Vishnu, K. D. Vogiatzis,
        D. Wang, J. H. Weare, M. J. Williamson, T. L. Windus, K. Wolinski,
        A. T. Wong, Q. Wu, C. Yang, Q. Yu, M. Zacharias, Z. Zhang, Y. Zhao,
                                and R. J. Harrison
                        "NWChem: Past, present, and future
                         J. Chem. Phys. 152, 184102 (2020)
                               doi:10.1063/5.0004997

                                      AUTHORS
                                      -------
  E. Apra, E. J. Bylaska, N. Govind, K. Kowalski, M. Valiev, D. Mejia-Rodriguez,
       A. Kunitsa, N. P. Bauman, A. Panyala, W. A. de Jong, T. P. Straatsma,
   H. J. J. van Dam, D. Wang, T. L. Windus, J. Hammond, J. Autschbach, A. Woods,
    K. Bhaskaran-Nair, J. Brabec, K. Lopata, S. A. Fischer, S. Krishnamoorthy,
     M. Jacquelin, W. Ma, M. Klemm, O. Villa, Y. Chen, V. Anisimov, F. Aquino,
     S. Hirata, M. T. Hackler, E. Hermes, L. Jensen, J. E. Moore, J. C. Becca,
      V. Konjkov, T. Risthaus, M. Malagoli, A. Marenich, A. Otero-de-la-Roza,
        J. Mullin, P. Nichols, R. Peverati, J. Pittner, Y. Zhao, P.-D. Fan,
        A. Fonari, M. J. Williamson, R. J. Harrison, J. R. Rehr, M. Dupuis,
     D. Silverstein, D. M. A. Smith, J. Nieplocha, V. Tipparaju, M. Krishnan,
     B. E. Van Kuiken, A. Vazquez-Mayagoitia, M. Swart, Q. Wu, T. Van Voorhis,
     A. A. Auer, M. Nooijen, L. D. Crosby, E. Brown, G. Cisneros, G. I. Fann,
   H. Fruchtl, J. Garza, K. Hirao, R. A. Kendall, J. A. Nichols, K. Tsemekhman,
    K. Wolinski, J. Anchell, D. E. Bernholdt, P. Borowski, T. Clark, D. Clerc,
   H. Dachsel, M. J. O. Deegan, K. Dyall, D. Elwood, E. Glendening, M. Gutowski,
   A. C. Hess, J. Jaffe, B. G. Johnson, J. Ju, R. Kobayashi, R. Kutteh, Z. Lin,
   R. Littlefield, X. Long, B. Meng, T. Nakajima, S. Niu, L. Pollack, M. Rosing,
   K. Glaesemann, G. Sandrone, M. Stave, H. Taylor, G. Thomas, J. H. van Lenthe,
                               A. T. Wong, Z. Zhang.

 Total times  cpu:      572.1s     wall:      475.8s
