 argument  1 = /home/milias/work/git-projects/Molecular-and-Materials-Modeling-2025/molecular-modeling/themes/HF_molecule_properties/nwchem/ionization_energy/HF+.b3lyp_daug-cc-pVDZ_doublet.nw



============================== echo of input deck ==============================
echo

start molecule

title "HF+ | Equilibrium Geometry | B3LYP/daug-cc-pVDZ"

charge +1

print low

geometry units angstroms print xyz autosym
F     -7.495632    1.264070   -0.005417
H     -8.290988    1.365470   -0.494508
end

basis
  * library d-aug-cc-pvdz
end

dft
  xc b3lyp
  mult 2
  odft
end

driver
  maxiter 50
end

task dft optimize
================================================================================


                                         
                                         


             Northwest Computational Chemistry Package (NWChem) 7.0.2
             --------------------------------------------------------


                    Environmental Molecular Sciences Laboratory
                       Pacific Northwest National Laboratory
                                Richland, WA 99352

                              Copyright (c) 1994-2020
                       Pacific Northwest National Laboratory
                            Battelle Memorial Institute

             NWChem is an open-source computational chemistry package
                        distributed under the terms of the
                      Educational Community License (ECL) 2.0
             A copy of the license is included with this distribution
                              in the LICENSE.TXT file

                                  ACKNOWLEDGMENT
                                  --------------

            This software and its documentation were developed at the
            EMSL at Pacific Northwest National Laboratory, a multiprogram
            national laboratory, operated for the U.S. Department of Energy
            by Battelle under Contract Number DE-AC05-76RL01830. Support
            for this work was provided by the Department of Energy Office
            of Biological and Environmental Research, Office of Basic
            Energy Sciences, and the Office of Advanced Scientific Computing.


           Job information
           ---------------

    hostname        = DESKTOP-7OTLCGO
    program         = /usr/bin/nwchem
    date            = Wed Aug 27 14:17:04 2025

    compiled        = Sat_Apr_09_17:12:10_2022
    source          = /build/nwchem-f1f4gx/nwchem-7.0.2/build-openmpi
    nwchem branch   = 7.0.2
    nwchem revision = N/A
    ga revision     = 5.8.1
    use scalapack   = T
    input           = /home/milias/work/git-projects/Molecular-and-Materials-Modeling-2025/molecular-modeling/themes/HF_molecule_properties/nwchem/ionization_energy/HF+.b3lyp_daug-cc-pVDZ_doublet.nw
    prefix          = molecule.
    data base       = ./molecule.db
    status          = startup
    nproc           =        8
    time left       =     -1s



           Memory information
           ------------------

    heap     =   13107194 doubles =    100.0 Mbytes
    stack    =   13107199 doubles =    100.0 Mbytes
    global   =   26214400 doubles =    200.0 Mbytes (distinct from heap & stack)
    total    =   52428793 doubles =    400.0 Mbytes
    verify   = yes
    hardfail = no 


           Directory information
           ---------------------

  0 permanent = .
  0 scratch   = .




                                NWChem Input Module
                                -------------------


                  HF+ | Equilibrium Geometry | B3LYP/daug-cc-pVDZ
                  -----------------------------------------------

 Scaling coordinates for geometry "geometry" by  1.889725989
 (inverse scale =  0.529177249)


          ------
          auto-z
          ------
  no constraints, skipping    0.0000000000000000     
  no constraints, skipping    0.0000000000000000     


                             Geometry "geometry" -> ""
                             -------------------------

 Output coordinates in angstroms (scale by  1.889725989 to convert to a.u.)

  No.       Tag          Charge          X              Y              Z
 ---- ---------------- ---------- -------------- -------------- --------------
    1 F                    9.0000     0.00000000     0.00000000     0.09391928
    2 H                    1.0000     0.00000000     0.00000000    -0.84527353

      Atomic Mass 
      ----------- 

      F                 18.998400
      H                  1.007825


 Effective nuclear repulsion energy (a.u.)       5.0709451711

            Nuclear Dipole moment (a.u.) 
            ----------------------------
        X                 Y               Z
 ---------------- ---------------- ----------------
     0.0000000000     0.0000000000     0.0000000000

      Symmetry information
      --------------------

 Group name             C4v       
 Group number             18
 Group order               8
 No. of unique centers     2

      Symmetry unique atoms

     1    2



                                Z-matrix (autoz)
                                -------- 

 Units are Angstrom for bonds and degrees for angles

      Type          Name      I     J     K     L     M      Value
      ----------- --------  ----- ----- ----- ----- ----- ----------
    1 Stretch                  1     2                       0.93919


            XYZ format geometry
            -------------------
     2
 geometry
 F                     0.00000000     0.00000000     0.09391928
 H                     0.00000000     0.00000000    -0.84527353

 ==============================================================================
                                internuclear distances
 ------------------------------------------------------------------------------
       center one      |      center two      | atomic units |  angstroms
 ------------------------------------------------------------------------------
    2 H                |   1 F                |     1.77482  |     0.93919
 ------------------------------------------------------------------------------
                         number of included internuclear distances:          1
 ==============================================================================





 Summary of "ao basis" -> "" (cartesian)
 ------------------------------------------------------------------------------
       Tag                 Description            Shells   Functions and Types
 ---------------- ------------------------------  ------  ---------------------
 *                       d-aug-cc-pvdz                on all atoms 




                           NWChem Geometry Optimization
                           ----------------------------




                  HF+ | Equilibrium Geometry | B3LYP/daug-cc-pVDZ


  no constraints, skipping    0.0000000000000000     
 maximum gradient threshold         (gmax) =   0.000450
 rms gradient threshold             (grms) =   0.000300
 maximum cartesian step threshold   (xmax) =   0.001800
 rms cartesian step threshold       (xrms) =   0.001200
 fixed trust radius                (trust) =   0.300000
 maximum step size to saddle      (sadstp) =   0.100000
 energy precision                  (eprec) =   5.0D-06
 maximum number of steps          (nptopt) =   50
 initial hessian option           (inhess) =    0
 line search option               (linopt) =    1
 hessian update option            (modupd) =    1
 saddle point option              (modsad) =    0
 initial eigen-mode to follow     (moddir) =    0
 initial variable to follow       (vardir) =    0
 follow first negative mode     (firstneg) =    T
 apply conjugacy                    (opcg) =    F
 source of zmatrix                         =   autoz   


          -------------------
          Energy Minimization
          -------------------


 Names of Z-matrix variables 
    1         

 Variables with the same non-blank name are constrained to be equal


 Using diagonal initial Hessian 
 Scaling for Hessian diagonals: bonds = 1.00  angles = 0.25  torsions = 0.10

          --------
          Step   0
          --------

                                 NWChem DFT Module
                                 -----------------


                  HF+ | Equilibrium Geometry | B3LYP/daug-cc-pVDZ


                      Basis "ao basis" -> "ao basis" (cartesian)
                      -----
  F (Fluorine)
  ------------
            Exponent  Coefficients 
       -------------- ---------------------------------------------------------
  1 S  1.47100000E+04  0.000721
  1 S  2.20700000E+03  0.005553
  1 S  5.02800000E+02  0.028267
  1 S  1.42600000E+02  0.106444
  1 S  4.64700000E+01  0.286814
  1 S  1.67000000E+01  0.448641
  1 S  6.35600000E+00  0.264761
  1 S  1.31600000E+00  0.015333

  2 S  1.47100000E+04 -0.000165
  2 S  2.20700000E+03 -0.001308
  2 S  5.02800000E+02 -0.006495
  2 S  1.42600000E+02 -0.026691
  2 S  4.64700000E+01 -0.073690
  2 S  1.67000000E+01 -0.170776
  2 S  6.35600000E+00 -0.112327
  2 S  1.31600000E+00  0.562814

  3 S  3.89700000E-01  1.000000

  4 S  9.86300000E-02  1.000000

  5 S  2.50000000E-02  1.000000

  6 P  2.26700000E+01  0.044878
  6 P  4.97700000E+00  0.235718
  6 P  1.34700000E+00  0.508521

  7 P  3.47100000E-01  1.000000

  8 P  8.50200000E-02  1.000000

  9 P  2.08000000E-02  1.000000

 10 D  1.64000000E+00  1.000000

 11 D  4.64000000E-01  1.000000

 12 D  1.31000000E-01  1.000000

  H (Hydrogen)
  ------------
            Exponent  Coefficients 
       -------------- ---------------------------------------------------------
  1 S  1.30100000E+01  0.019685
  1 S  1.96200000E+00  0.137977
  1 S  4.44600000E-01  0.478148

  2 S  1.22000000E-01  1.000000

  3 S  2.97400000E-02  1.000000

  4 S  7.25000000E-03  1.000000

  5 P  7.27000000E-01  1.000000

  6 P  1.41000000E-01  1.000000

  7 P  2.73000000E-02  1.000000



 Summary of "ao basis" -> "ao basis" (cartesian)
 ------------------------------------------------------------------------------
       Tag                 Description            Shells   Functions and Types
 ---------------- ------------------------------  ------  ---------------------
 F                       d-aug-cc-pvdz              12       35   5s4p3d
 H                       d-aug-cc-pvdz               7       13   4s3p



  Caching 1-el integrals 

 !! scf_movecs_sym_adapt:    6 vectors were symmetry contaminated

  Symmetry fudging

 !! scf_movecs_sym_adapt:    6 vectors were symmetry contaminated


 !! scf_movecs_sym_adapt:    6 vectors were symmetry contaminated

  Symmetry fudging

 !! scf_movecs_sym_adapt:    6 vectors were symmetry contaminated

   Time after variat. SCF:      0.5
   Time prior to 1st pass:      0.5
 Warning: spatial symmetry breaking:  beta =  1.86D-01
 Warning: spatial symmetry breaking:  beta =  2.25D-01
 Warning: spatial symmetry breaking:  beta =  2.32D-01
 Warning: spatial symmetry breaking:  beta =  2.33D-01
 Warning: spatial symmetry breaking:  beta =  2.33D-01
  Resetting Diis
 Warning: spatial symmetry breaking:  beta =  2.33D-01
 Warning: spatial symmetry breaking:  beta =  2.34D-01
 Warning: spatial symmetry breaking:  beta =  2.34D-01


         Total DFT energy =      -99.819941799365
      One electron energy =     -144.296061293124
           Coulomb energy =       49.732916905787
    Exchange-Corr. energy =      -10.327742583138
 Nuclear repulsion energy =        5.070945171111

 Numeric. integr. density =        9.000006694913

     Total iterative time =      0.4s



                  Occupations of the irreducible representations
                  ----------------------------------------------

                     irrep           alpha         beta
                     --------     --------     --------
                     a1                3.0          3.0
                     a2                0.0          0.0
                     b1                0.0          0.0
                     b2                0.0          0.0
                     e                 2.0          1.0


     --------------------------
     Expectation value of S2:  
     --------------------------
      <S2> =      0.7536 (Exact =     0.7500)



                         DFT ENERGY GRADIENTS

    atom               coordinates                        gradient
                 x          y          z           x          y          z
   1 F       0.000000   0.000000   0.177482    0.000000   0.000000  -0.046813
   2 H       0.000000   0.000000  -1.597335    0.000000   0.000000   0.046813

  no constraints, skipping    0.0000000000000000     

@ Step       Energy      Delta E   Gmax     Grms     Xrms     Xmax   Walltime
@ ---- ---------------- -------- -------- -------- -------- -------- --------
@    0     -99.81994180  0.0D+00  0.04681  0.04681  0.00000  0.00000      1.0
                                                                    

  no constraints, skipping    0.0000000000000000     
  no constraints, skipping    0.0000000000000000     
  no constraints, skipping    0.0000000000000000     

                                 NWChem DFT Module
                                 -----------------


                  HF+ | Equilibrium Geometry | B3LYP/daug-cc-pVDZ



  Caching 1-el integrals 
   Time after variat. SCF:      1.0
   Time prior to 1st pass:      1.0
 Warning: spatial symmetry breaking:  beta =  2.37D-01
 Warning: spatial symmetry breaking:  beta =  2.33D-01
 Warning: spatial symmetry breaking:  beta =  2.33D-01
 Warning: spatial symmetry breaking:  beta =  2.33D-01
 Warning: spatial symmetry breaking:  beta =  2.33D-01
 Warning: spatial symmetry breaking:  beta =  2.33D-01
 Warning: spatial symmetry breaking:  beta =  2.33D-01


         Total DFT energy =      -99.824153859049
      One electron energy =     -143.745859868715
           Coulomb energy =       49.536844918528
    Exchange-Corr. energy =      -10.301004127190
 Nuclear repulsion energy =        4.685865218328

 Numeric. integr. density =        8.999991115690

     Total iterative time =      0.2s



                  Occupations of the irreducible representations
                  ----------------------------------------------

                     irrep           alpha         beta
                     --------     --------     --------
                     a1                3.0          3.0
                     a2                0.0          0.0
                     b1                0.0          0.0
                     b2                0.0          0.0
                     e                 2.0          1.0


     --------------------------
     Expectation value of S2:  
     --------------------------
      <S2> =      0.7538 (Exact =     0.7500)

 Line search: 
     step= 1.00 grad=-6.8D-03 hess= 2.6D-03 energy=    -99.824154 mode=downhill
 new step= 1.31                   predicted energy=    -99.824397
  no constraints, skipping    0.0000000000000000     
  no constraints, skipping    0.0000000000000000     
  no constraints, skipping    0.0000000000000000     

          --------
          Step   1
          --------

                                 NWChem DFT Module
                                 -----------------


                  HF+ | Equilibrium Geometry | B3LYP/daug-cc-pVDZ



  Caching 1-el integrals 
   Time after variat. SCF:      1.2
   Time prior to 1st pass:      1.2
 Warning: spatial symmetry breaking:  beta =  2.37D-01
 Warning: spatial symmetry breaking:  beta =  2.35D-01
 Warning: spatial symmetry breaking:  beta =  2.34D-01
 Warning: spatial symmetry breaking:  beta =  2.33D-01
 Warning: spatial symmetry breaking:  beta =  2.32D-01
 Warning: spatial symmetry breaking:  beta =  2.32D-01
 Warning: spatial symmetry breaking:  beta =  2.32D-01


         Total DFT energy =      -99.823909676696
      One electron energy =     -143.595324943508
           Coulomb energy =       49.485712776174
    Exchange-Corr. energy =      -10.294037715767
 Nuclear repulsion energy =        4.579740206406

 Numeric. integr. density =        8.999992270982

     Total iterative time =      0.3s



                  Occupations of the irreducible representations
                  ----------------------------------------------

                     irrep           alpha         beta
                     --------     --------     --------
                     a1                3.0          3.0
                     a2                0.0          0.0
                     b1                0.0          0.0
                     b2                0.0          0.0
                     e                 2.0          1.0


     --------------------------
     Expectation value of S2:  
     --------------------------
      <S2> =      0.7539 (Exact =     0.7500)



                         DFT ENERGY GRADIENTS

    atom               coordinates                        gradient
                 x          y          z           x          y          z
   1 F       0.000000   0.000000   0.272662    0.000000   0.000000   0.022695
   2 H       0.000000   0.000000  -1.692515    0.000000   0.000000  -0.022695

  no constraints, skipping    0.0000000000000000     

  Step       Energy      Delta E   Gmax     Grms     Xrms     Xmax   Walltime
  ---- ---------------- -------- -------- -------- -------- -------- --------
@    1     -99.82390968 -4.0D-03  0.02270  0.02270  0.05495  0.09518      1.6
                                                                    

  no constraints, skipping    0.0000000000000000     
  no constraints, skipping    0.0000000000000000     
  no constraints, skipping    0.0000000000000000     

                                 NWChem DFT Module
                                 -----------------


                  HF+ | Equilibrium Geometry | B3LYP/daug-cc-pVDZ



  Caching 1-el integrals 
   Time after variat. SCF:      1.6
   Time prior to 1st pass:      1.6
 Warning: spatial symmetry breaking:  beta =  2.38D-01
 Warning: spatial symmetry breaking:  beta =  2.35D-01
 Warning: spatial symmetry breaking:  beta =  2.34D-01
 Warning: spatial symmetry breaking:  beta =  2.33D-01
 Warning: spatial symmetry breaking:  beta =  2.33D-01
 Warning: spatial symmetry breaking:  beta =  2.33D-01
 Warning: spatial symmetry breaking:  beta =  2.33D-01


         Total DFT energy =      -99.824087731071
      One electron energy =     -143.807711657884
           Coulomb energy =       49.558217309469
    Exchange-Corr. energy =      -10.303914528587
 Nuclear repulsion energy =        4.729321145931

 Numeric. integr. density =        8.999993032079

     Total iterative time =      0.3s



                  Occupations of the irreducible representations
                  ----------------------------------------------

                     irrep           alpha         beta
                     --------     --------     --------
                     a1                3.0          3.0
                     a2                0.0          0.0
                     b1                0.0          0.0
                     b2                0.0          0.0
                     e                 2.0          1.0


     --------------------------
     Expectation value of S2:  
     --------------------------
      <S2> =      0.7538 (Exact =     0.7500)

 Line search: 
     step= 1.00 grad=-1.4D-03 hess= 1.2D-03 energy=    -99.824088 mode=downhill
 new step= 0.57                   predicted energy=    -99.824313
  no constraints, skipping    0.0000000000000000     
  no constraints, skipping    0.0000000000000000     
  no constraints, skipping    0.0000000000000000     

          --------
          Step   2
          --------

                                 NWChem DFT Module
                                 -----------------


                  HF+ | Equilibrium Geometry | B3LYP/daug-cc-pVDZ



  Caching 1-el integrals 
   Time after variat. SCF:      1.9
   Time prior to 1st pass:      1.9
 Warning: spatial symmetry breaking:  beta =  2.37D-01
 Warning: spatial symmetry breaking:  beta =  2.35D-01
 Warning: spatial symmetry breaking:  beta =  2.34D-01
 Warning: spatial symmetry breaking:  beta =  2.33D-01
 Warning: spatial symmetry breaking:  beta =  2.33D-01
 Warning: spatial symmetry breaking:  beta =  2.33D-01
 Warning: spatial symmetry breaking:  beta =  2.33D-01


         Total DFT energy =      -99.824150274694
      One electron energy =     -143.715121510638
           Coulomb energy =       49.526389356226
    Exchange-Corr. energy =      -10.299573255472
 Nuclear repulsion energy =        4.664155135189

 Numeric. integr. density =        8.999990686071

     Total iterative time =      0.2s



                  Occupations of the irreducible representations
                  ----------------------------------------------

                     irrep           alpha         beta
                     --------     --------     --------
                     a1                3.0          3.0
                     a2                0.0          0.0
                     b1                0.0          0.0
                     b2                0.0          0.0
                     e                 2.0          1.0


     --------------------------
     Expectation value of S2:  
     --------------------------
      <S2> =      0.7538 (Exact =     0.7500)



                         DFT ENERGY GRADIENTS

    atom               coordinates                        gradient
                 x          y          z           x          y          z
   1 F       0.000000   0.000000   0.254878    0.000000   0.000000   0.013740
   2 H       0.000000   0.000000  -1.674732    0.000000   0.000000  -0.013740

  no constraints, skipping    0.0000000000000000     

  Step       Energy      Delta E   Gmax     Grms     Xrms     Xmax   Walltime
  ---- ---------------- -------- -------- -------- -------- -------- --------
@    2     -99.82415027 -2.4D-04  0.01374  0.01374  0.01027  0.01778      2.2
                                                                    

  no constraints, skipping    0.0000000000000000     
  no constraints, skipping    0.0000000000000000     
  no constraints, skipping    0.0000000000000000     

                                 NWChem DFT Module
                                 -----------------


                  HF+ | Equilibrium Geometry | B3LYP/daug-cc-pVDZ



  Caching 1-el integrals 
   Time after variat. SCF:      2.2
   Time prior to 1st pass:      2.2
 Warning: spatial symmetry breaking:  beta =  2.38D-01
 Warning: spatial symmetry breaking:  beta =  2.36D-01
 Warning: spatial symmetry breaking:  beta =  2.34D-01
 Warning: spatial symmetry breaking:  beta =  2.33D-01
 Warning: spatial symmetry breaking:  beta =  2.33D-01
 Warning: spatial symmetry breaking:  beta =  2.33D-01
 Warning: spatial symmetry breaking:  beta =  2.33D-01


         Total DFT energy =      -99.823767616916
      One electron energy =     -143.908287840158
           Coulomb energy =       49.593332159512
    Exchange-Corr. energy =      -10.308702266792
 Nuclear repulsion energy =        4.799890330522

 Numeric. integr. density =        8.999998223377

     Total iterative time =      0.2s



                  Occupations of the irreducible representations
                  ----------------------------------------------

                     irrep           alpha         beta
                     --------     --------     --------
                     a1                3.0          3.0
                     a2                0.0          0.0
                     b1                0.0          0.0
                     b2                0.0          0.0
                     e                 2.0          1.0


     --------------------------
     Expectation value of S2:  
     --------------------------
      <S2> =      0.7537 (Exact =     0.7500)

 Line search: 
     step= 1.00 grad=-7.5D-04 hess= 1.1D-03 energy=    -99.823768 mode=bracket 
 new step= 0.33                   predicted energy=    -99.824274
  no constraints, skipping    0.0000000000000000     
  no constraints, skipping    0.0000000000000000     
  no constraints, skipping    0.0000000000000000     

          --------
          Step   3
          --------

                                 NWChem DFT Module
                                 -----------------


                  HF+ | Equilibrium Geometry | B3LYP/daug-cc-pVDZ



  Caching 1-el integrals 
   Time after variat. SCF:      2.5
   Time prior to 1st pass:      2.5
 Warning: spatial symmetry breaking:  beta =  2.37D-01
 Warning: spatial symmetry breaking:  beta =  2.35D-01
 Warning: spatial symmetry breaking:  beta =  2.34D-01
 Warning: spatial symmetry breaking:  beta =  2.33D-01
 Warning: spatial symmetry breaking:  beta =  2.33D-01
 Warning: spatial symmetry breaking:  beta =  2.33D-01
 Warning: spatial symmetry breaking:  beta =  2.33D-01


         Total DFT energy =      -99.824132103525
      One electron energy =     -143.777752120200
           Coulomb energy =       49.547893940622
    Exchange-Corr. energy =      -10.302504911843
 Nuclear repulsion energy =        4.708230987896

 Numeric. integr. density =        8.999991939273

     Total iterative time =      0.3s



                  Occupations of the irreducible representations
                  ----------------------------------------------

                     irrep           alpha         beta
                     --------     --------     --------
                     a1                3.0          3.0
                     a2                0.0          0.0
                     b1                0.0          0.0
                     b2                0.0          0.0
                     e                 2.0          1.0


     --------------------------
     Expectation value of S2:  
     --------------------------
      <S2> =      0.7538 (Exact =     0.7500)



                         DFT ENERGY GRADIENTS

    atom               coordinates                        gradient
                 x          y          z           x          y          z
   1 F       0.000000   0.000000   0.245846    0.000000   0.000000   0.008614
   2 H       0.000000   0.000000  -1.665700    0.000000   0.000000  -0.008614

  no constraints, skipping    0.0000000000000000     

  Step       Energy      Delta E   Gmax     Grms     Xrms     Xmax   Walltime
  ---- ---------------- -------- -------- -------- -------- -------- --------
@    3     -99.82413210  1.8D-05  0.00861  0.00861  0.00521  0.00903      2.8
                                                                    

 Restricting overall step due to uphill motion.   alpha=  0.50
  no constraints, skipping    0.0000000000000000     
  no constraints, skipping    0.0000000000000000     
  no constraints, skipping    0.0000000000000000     

                                 NWChem DFT Module
                                 -----------------


                  HF+ | Equilibrium Geometry | B3LYP/daug-cc-pVDZ



  Caching 1-el integrals 
   Time after variat. SCF:      2.9
   Time prior to 1st pass:      2.9
 Warning: spatial symmetry breaking:  beta =  2.37D-01
 Warning: spatial symmetry breaking:  beta =  2.36D-01
 Warning: spatial symmetry breaking:  beta =  2.35D-01
 Warning: spatial symmetry breaking:  beta =  2.34D-01
 Warning: spatial symmetry breaking:  beta =  2.33D-01
 Warning: spatial symmetry breaking:  beta =  2.33D-01
 Warning: spatial symmetry breaking:  beta =  2.33D-01


         Total DFT energy =      -99.824036341638
      One electron energy =     -143.831507196215
           Coulomb energy =       49.566604244714
    Exchange-Corr. energy =      -10.305051354849
 Nuclear repulsion energy =        4.745917964711

 Numeric. integr. density =        8.999994075342

     Total iterative time =      0.2s



                  Occupations of the irreducible representations
                  ----------------------------------------------

                     irrep           alpha         beta
                     --------     --------     --------
                     a1                3.0          3.0
                     a2                0.0          0.0
                     b1                0.0          0.0
                     b2                0.0          0.0
                     e                 2.0          1.0


     --------------------------
     Expectation value of S2:  
     --------------------------
      <S2> =      0.7538 (Exact =     0.7500)

 Line search: 
     step= 0.50 grad=-2.6D-04 hess= 9.1D-04 energy=    -99.824036 mode=bracket 
 new step= 0.14                   predicted energy=    -99.824151
  no constraints, skipping    0.0000000000000000     
  no constraints, skipping    0.0000000000000000     
  no constraints, skipping    0.0000000000000000     

          --------
          Step   4
          --------

                                 NWChem DFT Module
                                 -----------------


                  HF+ | Equilibrium Geometry | B3LYP/daug-cc-pVDZ



  Caching 1-el integrals 
   Time after variat. SCF:      3.1
   Time prior to 1st pass:      3.1
 Warning: spatial symmetry breaking:  beta =  2.37D-01
 Warning: spatial symmetry breaking:  beta =  2.36D-01
 Warning: spatial symmetry breaking:  beta =  2.35D-01
 Warning: spatial symmetry breaking:  beta =  2.34D-01
 Warning: spatial symmetry breaking:  beta =  2.33D-01
 Warning: spatial symmetry breaking:  beta =  2.33D-01
 Warning: spatial symmetry breaking:  beta =  2.33D-01
 Warning: spatial symmetry breaking:  beta =  2.33D-01


         Total DFT energy =      -99.824112267093
      One electron energy =     -143.793089628272
           Coulomb energy =       49.553158025206
    Exchange-Corr. energy =      -10.303227456006
 Nuclear repulsion energy =        4.719046791979

 Numeric. integr. density =        8.999992463968

     Total iterative time =      0.3s



                  Occupations of the irreducible representations
                  ----------------------------------------------

                     irrep           alpha         beta
                     --------     --------     --------
                     a1                3.0          3.0
                     a2                0.0          0.0
                     b1                0.0          0.0
                     b2                0.0          0.0
                     e                 2.0          1.0


     --------------------------
     Expectation value of S2:  
     --------------------------
      <S2> =      0.7538 (Exact =     0.7500)



                         DFT ENERGY GRADIENTS

    atom               coordinates                        gradient
                 x          y          z           x          y          z
   1 F       0.000000   0.000000   0.243656    0.000000   0.000000   0.007309
   2 H       0.000000   0.000000  -1.663509    0.000000   0.000000  -0.007309

  no constraints, skipping    0.0000000000000000     

  Step       Energy      Delta E   Gmax     Grms     Xrms     Xmax   Walltime
  ---- ---------------- -------- -------- -------- -------- -------- --------
@    4     -99.82411227  2.0D-05  0.00731  0.00731  0.00126  0.00219      3.5
                                                                    

 Restricting overall step due to uphill motion.   alpha=  0.25
  no constraints, skipping    0.0000000000000000     
  no constraints, skipping    0.0000000000000000     
  no constraints, skipping    0.0000000000000000     

                                 NWChem DFT Module
                                 -----------------


                  HF+ | Equilibrium Geometry | B3LYP/daug-cc-pVDZ



  Caching 1-el integrals 
   Time after variat. SCF:      3.5
   Time prior to 1st pass:      3.5
 Warning: spatial symmetry breaking:  beta =  2.37D-01
 Warning: spatial symmetry breaking:  beta =  2.36D-01
 Warning: spatial symmetry breaking:  beta =  2.35D-01
 Warning: spatial symmetry breaking:  beta =  2.34D-01
 Warning: spatial symmetry breaking:  beta =  2.33D-01
 Warning: spatial symmetry breaking:  beta =  2.33D-01
 Warning: spatial symmetry breaking:  beta =  2.33D-01
 Warning: spatial symmetry breaking:  beta =  2.33D-01


         Total DFT energy =      -99.824073949109
      One electron energy =     -143.814770494560
           Coulomb energy =       49.560682028827
    Exchange-Corr. energy =      -10.304252654645
 Nuclear repulsion energy =        4.734267171268

 Numeric. integr. density =        8.999993327434

     Total iterative time =      0.3s



                  Occupations of the irreducible representations
                  ----------------------------------------------

                     irrep           alpha         beta
                     --------     --------     --------
                     a1                3.0          3.0
                     a2                0.0          0.0
                     b1                0.0          0.0
                     b2                0.0          0.0
                     e                 2.0          1.0


     --------------------------
     Expectation value of S2:  
     --------------------------
      <S2> =      0.7538 (Exact =     0.7500)

 Line search: 
     step= 0.25 grad=-1.8D-04 hess= 1.3D-03 energy=    -99.824074 mode=bracket 
 new step= 0.07                   predicted energy=    -99.824118
  no constraints, skipping    0.0000000000000000     
  no constraints, skipping    0.0000000000000000     
  no constraints, skipping    0.0000000000000000     

          --------
          Step   5
          --------

                                 NWChem DFT Module
                                 -----------------


                  HF+ | Equilibrium Geometry | B3LYP/daug-cc-pVDZ



  Caching 1-el integrals 
   Time after variat. SCF:      3.8
   Time prior to 1st pass:      3.8
 Warning: spatial symmetry breaking:  beta =  2.37D-01
 Warning: spatial symmetry breaking:  beta =  2.36D-01
 Warning: spatial symmetry breaking:  beta =  2.35D-01
 Warning: spatial symmetry breaking:  beta =  2.34D-01
 Warning: spatial symmetry breaking:  beta =  2.33D-01
 Warning: spatial symmetry breaking:  beta =  2.33D-01
 Warning: spatial symmetry breaking:  beta =  2.33D-01
 Warning: spatial symmetry breaking:  beta =  2.33D-01


         Total DFT energy =      -99.824103159688
      One electron energy =     -143.798922702359
           Coulomb energy =       49.555183346102
    Exchange-Corr. energy =      -10.303503310564
 Nuclear repulsion energy =        4.723139507132

 Numeric. integr. density =        8.999992682704

     Total iterative time =      0.3s



                  Occupations of the irreducible representations
                  ----------------------------------------------

                     irrep           alpha         beta
                     --------     --------     --------
                     a1                3.0          3.0
                     a2                0.0          0.0
                     b1                0.0          0.0
                     b2                0.0          0.0
                     e                 2.0          1.0


     --------------------------
     Expectation value of S2:  
     --------------------------
      <S2> =      0.7538 (Exact =     0.7500)



                         DFT ENERGY GRADIENTS

    atom               coordinates                        gradient
                 x          y          z           x          y          z
   1 F       0.000000   0.000000   0.242829    0.000000   0.000000   0.006808
   2 H       0.000000   0.000000  -1.662683    0.000000   0.000000  -0.006808

  no constraints, skipping    0.0000000000000000     

  Step       Energy      Delta E   Gmax     Grms     Xrms     Xmax   Walltime
  ---- ---------------- -------- -------- -------- -------- -------- --------
@    5     -99.82410316  9.1D-06  0.00681  0.00681  0.00048  0.00083      4.2
                                                       ok       ok  

 Restricting overall step due to uphill motion.   alpha=  0.15
  no constraints, skipping    0.0000000000000000     
  no constraints, skipping    0.0000000000000000     
  no constraints, skipping    0.0000000000000000     

                                 NWChem DFT Module
                                 -----------------


                  HF+ | Equilibrium Geometry | B3LYP/daug-cc-pVDZ



  Caching 1-el integrals 
   Time after variat. SCF:      4.2
   Time prior to 1st pass:      4.2
 Warning: spatial symmetry breaking:  beta =  2.37D-01
 Warning: spatial symmetry breaking:  beta =  2.36D-01
 Warning: spatial symmetry breaking:  beta =  2.35D-01
 Warning: spatial symmetry breaking:  beta =  2.34D-01
 Warning: spatial symmetry breaking:  beta =  2.33D-01
 Warning: spatial symmetry breaking:  beta =  2.33D-01
 Warning: spatial symmetry breaking:  beta =  2.33D-01
 Warning: spatial symmetry breaking:  beta =  2.33D-01


         Total DFT energy =      -99.824081781469
      One electron energy =     -143.810850356523
           Coulomb energy =       49.559321118003
    Exchange-Corr. energy =      -10.304067162050
 Nuclear repulsion energy =        4.731514619102

 Numeric. integr. density =        8.999993161332

     Total iterative time =      0.3s



                  Occupations of the irreducible representations
                  ----------------------------------------------

                     irrep           alpha         beta
                     --------     --------     --------
                     a1                3.0          3.0
                     a2                0.0          0.0
                     b1                0.0          0.0
                     b2                0.0          0.0
                     e                 2.0          1.0


     --------------------------
     Expectation value of S2:  
     --------------------------
      <S2> =      0.7538 (Exact =     0.7500)

 Line search: 
     step= 0.15 grad=-1.5D-04 hess= 2.0D-03 energy=    -99.824082 mode=bracket 
 new step= 0.04                   predicted energy=    -99.824106
  no constraints, skipping    0.0000000000000000     
  no constraints, skipping    0.0000000000000000     
  no constraints, skipping    0.0000000000000000     

          --------
          Step   6
          --------

                                 NWChem DFT Module
                                 -----------------


                  HF+ | Equilibrium Geometry | B3LYP/daug-cc-pVDZ



  Caching 1-el integrals 
   Time after variat. SCF:      4.5
   Time prior to 1st pass:      4.5
 Warning: spatial symmetry breaking:  beta =  2.37D-01
 Warning: spatial symmetry breaking:  beta =  2.36D-01
 Warning: spatial symmetry breaking:  beta =  2.35D-01
 Warning: spatial symmetry breaking:  beta =  2.34D-01
 Warning: spatial symmetry breaking:  beta =  2.33D-01
 Warning: spatial symmetry breaking:  beta =  2.33D-01
 Warning: spatial symmetry breaking:  beta =  2.33D-01
 Warning: spatial symmetry breaking:  beta =  2.33D-01


         Total DFT energy =      -99.824097984622
      One electron energy =     -143.802007286896
           Coulomb energy =       49.556253078487
    Exchange-Corr. energy =      -10.303649072067
 Nuclear repulsion energy =        4.725305295855

 Numeric. integr. density =        8.999992802405

     Total iterative time =      0.3s



                  Occupations of the irreducible representations
                  ----------------------------------------------

                     irrep           alpha         beta
                     --------     --------     --------
                     a1                3.0          3.0
                     a2                0.0          0.0
                     b1                0.0          0.0
                     b2                0.0          0.0
                     e                 2.0          1.0


     --------------------------
     Expectation value of S2:  
     --------------------------
      <S2> =      0.7538 (Exact =     0.7500)



                         DFT ENERGY GRADIENTS

    atom               coordinates                        gradient
                 x          y          z           x          y          z
   1 F       0.000000   0.000000   0.242393    0.000000   0.000000   0.006542
   2 H       0.000000   0.000000  -1.662246    0.000000   0.000000  -0.006542

  no constraints, skipping    0.0000000000000000     

  Step       Energy      Delta E   Gmax     Grms     Xrms     Xmax   Walltime
  ---- ---------------- -------- -------- -------- -------- -------- --------
@    6     -99.82409798  5.2D-06  0.00654  0.00654  0.00025  0.00044      4.8
                                                       ok       ok  

 Restricting overall step due to uphill motion.   alpha=  0.15
  no constraints, skipping    0.0000000000000000     
  no constraints, skipping    0.0000000000000000     
  no constraints, skipping    0.0000000000000000     

                                 NWChem DFT Module
                                 -----------------


                  HF+ | Equilibrium Geometry | B3LYP/daug-cc-pVDZ



  Caching 1-el integrals 
   Time after variat. SCF:      4.9
   Time prior to 1st pass:      4.9
 Warning: spatial symmetry breaking:  beta =  2.37D-01
 Warning: spatial symmetry breaking:  beta =  2.36D-01
 Warning: spatial symmetry breaking:  beta =  2.35D-01
 Warning: spatial symmetry breaking:  beta =  2.34D-01
 Warning: spatial symmetry breaking:  beta =  2.33D-01
 Warning: spatial symmetry breaking:  beta =  2.33D-01
 Warning: spatial symmetry breaking:  beta =  2.33D-01
 Warning: spatial symmetry breaking:  beta =  2.33D-01


         Total DFT energy =      -99.824076698343
      One electron energy =     -143.813416336481
           Coulomb energy =       49.560211316529
    Exchange-Corr. energy =      -10.304188517929
 Nuclear repulsion energy =        4.733316839539

 Numeric. integr. density =        8.999993269607

     Total iterative time =      0.3s



                  Occupations of the irreducible representations
                  ----------------------------------------------

                     irrep           alpha         beta
                     --------     --------     --------
                     a1                3.0          3.0
                     a2                0.0          0.0
                     b1                0.0          0.0
                     b2                0.0          0.0
                     e                 2.0          1.0


     --------------------------
     Expectation value of S2:  
     --------------------------
      <S2> =      0.7538 (Exact =     0.7500)

 Line search: 
     step= 0.15 grad=-1.4D-04 hess= 1.9D-03 energy=    -99.824077 mode=bracket 
 new step= 0.04                   predicted energy=    -99.824101
  no constraints, skipping    0.0000000000000000     
  no constraints, skipping    0.0000000000000000     
  no constraints, skipping    0.0000000000000000     

          --------
          Step   7
          --------

                                 NWChem DFT Module
                                 -----------------


                  HF+ | Equilibrium Geometry | B3LYP/daug-cc-pVDZ



  Caching 1-el integrals 
   Time after variat. SCF:      5.2
   Time prior to 1st pass:      5.2
 Warning: spatial symmetry breaking:  beta =  2.37D-01
 Warning: spatial symmetry breaking:  beta =  2.36D-01
 Warning: spatial symmetry breaking:  beta =  2.35D-01
 Warning: spatial symmetry breaking:  beta =  2.34D-01
 Warning: spatial symmetry breaking:  beta =  2.33D-01
 Warning: spatial symmetry breaking:  beta =  2.33D-01
 Warning: spatial symmetry breaking:  beta =  2.33D-01
 Warning: spatial symmetry breaking:  beta =  2.33D-01


         Total DFT energy =      -99.824093009711
      One electron energy =     -143.804841847227
           Coulomb energy =       49.557235385742
    Exchange-Corr. energy =      -10.303782971702
 Nuclear repulsion energy =        4.727296423477

 Numeric. integr. density =        8.999992915192

     Total iterative time =      0.3s



                  Occupations of the irreducible representations
                  ----------------------------------------------

                     irrep           alpha         beta
                     --------     --------     --------
                     a1                3.0          3.0
                     a2                0.0          0.0
                     b1                0.0          0.0
                     b2                0.0          0.0
                     e                 2.0          1.0


     --------------------------
     Expectation value of S2:  
     --------------------------
      <S2> =      0.7538 (Exact =     0.7500)



                         DFT ENERGY GRADIENTS

    atom               coordinates                        gradient
                 x          y          z           x          y          z
   1 F       0.000000   0.000000   0.241991    0.000000   0.000000   0.006297
   2 H       0.000000   0.000000  -1.661845    0.000000   0.000000  -0.006297

  no constraints, skipping    0.0000000000000000     

  Step       Energy      Delta E   Gmax     Grms     Xrms     Xmax   Walltime
  ---- ---------------- -------- -------- -------- -------- -------- --------
@    7     -99.82409301  5.0D-06  0.00630  0.00630  0.00023  0.00040      5.5
                                                       ok       ok  

 Restricting overall step due to uphill motion.   alpha=  0.70
  no constraints, skipping    0.0000000000000000     
  no constraints, skipping    0.0000000000000000     
  no constraints, skipping    0.0000000000000000     

                                 NWChem DFT Module
                                 -----------------


                  HF+ | Equilibrium Geometry | B3LYP/daug-cc-pVDZ



  Caching 1-el integrals 
   Time after variat. SCF:      5.5
   Time prior to 1st pass:      5.5
 Warning: spatial symmetry breaking:  beta =  2.37D-01
 Warning: spatial symmetry breaking:  beta =  2.36D-01
 Warning: spatial symmetry breaking:  beta =  2.35D-01
 Warning: spatial symmetry breaking:  beta =  2.34D-01
 Warning: spatial symmetry breaking:  beta =  2.33D-01
 Warning: spatial symmetry breaking:  beta =  2.33D-01
 Warning: spatial symmetry breaking:  beta =  2.33D-01


         Total DFT energy =      -99.823966341557
      One electron energy =     -143.856439228859
           Coulomb energy =       49.575291462642
    Exchange-Corr. energy =      -10.306235863021
 Nuclear repulsion energy =        4.763417287681

 Numeric. integr. density =        8.999995318602

     Total iterative time =      0.2s



                  Occupations of the irreducible representations
                  ----------------------------------------------

                     irrep           alpha         beta
                     --------     --------     --------
                     a1                3.0          3.0
                     a2                0.0          0.0
                     b1                0.0          0.0
                     b2                0.0          0.0
                     e                 2.0          1.0


     --------------------------
     Expectation value of S2:  
     --------------------------
      <S2> =      0.7538 (Exact =     0.7500)

 Line search: 
     step= 0.70 grad=-1.3D-04 hess= 4.4D-04 energy=    -99.823966 mode=bracket 
 new step= 0.15                   predicted energy=    -99.824103
  no constraints, skipping    0.0000000000000000     
  no constraints, skipping    0.0000000000000000     
  no constraints, skipping    0.0000000000000000     

          --------
          Step   8
          --------

                                 NWChem DFT Module
                                 -----------------


                  HF+ | Equilibrium Geometry | B3LYP/daug-cc-pVDZ



  Caching 1-el integrals 
   Time after variat. SCF:      5.8
   Time prior to 1st pass:      5.8
 Warning: spatial symmetry breaking:  beta =  2.37D-01
 Warning: spatial symmetry breaking:  beta =  2.36D-01
 Warning: spatial symmetry breaking:  beta =  2.35D-01
 Warning: spatial symmetry breaking:  beta =  2.34D-01
 Warning: spatial symmetry breaking:  beta =  2.33D-01
 Warning: spatial symmetry breaking:  beta =  2.33D-01
 Warning: spatial symmetry breaking:  beta =  2.33D-01
 Warning: spatial symmetry breaking:  beta =  2.33D-01


         Total DFT energy =      -99.824072394808
      One electron energy =     -143.815511101729
           Coulomb energy =       49.560927908405
    Exchange-Corr. energy =      -10.304286636157
 Nuclear repulsion energy =        4.734797434672

 Numeric. integr. density =        8.999993359919

     Total iterative time =      0.3s



                  Occupations of the irreducible representations
                  ----------------------------------------------

                     irrep           alpha         beta
                     --------     --------     --------
                     a1                3.0          3.0
                     a2                0.0          0.0
                     b1                0.0          0.0
                     b2                0.0          0.0
                     e                 2.0          1.0


     --------------------------
     Expectation value of S2:  
     --------------------------
      <S2> =      0.7538 (Exact =     0.7500)



                         DFT ENERGY GRADIENTS

    atom               coordinates                        gradient
                 x          y          z           x          y          z
   1 F       0.000000   0.000000   0.240483    0.000000   0.000000   0.005369
   2 H       0.000000   0.000000  -1.660337    0.000000   0.000000  -0.005369

  no constraints, skipping    0.0000000000000000     

  Step       Energy      Delta E   Gmax     Grms     Xrms     Xmax   Walltime
  ---- ---------------- -------- -------- -------- -------- -------- --------
@    8     -99.82407239  2.1D-05  0.00537  0.00537  0.00087  0.00151      6.2
                                                       ok       ok  

 Restricting overall step due to uphill motion.   alpha=  0.50
  no constraints, skipping    0.0000000000000000     
  no constraints, skipping    0.0000000000000000     
  no constraints, skipping    0.0000000000000000     

                                 NWChem DFT Module
                                 -----------------


                  HF+ | Equilibrium Geometry | B3LYP/daug-cc-pVDZ



  Caching 1-el integrals 
   Time after variat. SCF:      6.2
   Time prior to 1st pass:      6.2
 Warning: spatial symmetry breaking:  beta =  2.37D-01
 Warning: spatial symmetry breaking:  beta =  2.36D-01
 Warning: spatial symmetry breaking:  beta =  2.35D-01
 Warning: spatial symmetry breaking:  beta =  2.34D-01
 Warning: spatial symmetry breaking:  beta =  2.33D-01
 Warning: spatial symmetry breaking:  beta =  2.33D-01
 Warning: spatial symmetry breaking:  beta =  2.33D-01
 Warning: spatial symmetry breaking:  beta =  2.33D-01


         Total DFT energy =      -99.823995466664
      One electron energy =     -143.846617650465
           Coulomb energy =       49.571758809235
    Exchange-Corr. energy =      -10.305762852761
 Nuclear repulsion energy =        4.756626227327

 Numeric. integr. density =        8.999994821029

     Total iterative time =      0.3s



                  Occupations of the irreducible representations
                  ----------------------------------------------

                     irrep           alpha         beta
                     --------     --------     --------
                     a1                3.0          3.0
                     a2                0.0          0.0
                     b1                0.0          0.0
                     b2                0.0          0.0
                     e                 2.0          1.0


     --------------------------
     Expectation value of S2:  
     --------------------------
      <S2> =      0.7538 (Exact =     0.7500)

 Line search: 
     step= 0.50 grad=-9.4D-05 hess= 5.0D-04 energy=    -99.823995 mode=bracket 
 new step= 0.09                   predicted energy=    -99.824077
  no constraints, skipping    0.0000000000000000     
  no constraints, skipping    0.0000000000000000     
  no constraints, skipping    0.0000000000000000     

          --------
          Step   9
          --------

                                 NWChem DFT Module
                                 -----------------


                  HF+ | Equilibrium Geometry | B3LYP/daug-cc-pVDZ



  Caching 1-el integrals 
   Time after variat. SCF:      6.5
   Time prior to 1st pass:      6.5
 Warning: spatial symmetry breaking:  beta =  2.37D-01
 Warning: spatial symmetry breaking:  beta =  2.36D-01
 Warning: spatial symmetry breaking:  beta =  2.35D-01
 Warning: spatial symmetry breaking:  beta =  2.34D-01
 Warning: spatial symmetry breaking:  beta =  2.33D-01
 Warning: spatial symmetry breaking:  beta =  2.33D-01
 Warning: spatial symmetry breaking:  beta =  2.33D-01
 Warning: spatial symmetry breaking:  beta =  2.33D-01


         Total DFT energy =      -99.824059824302
      One electron energy =     -143.821376660923
           Coulomb energy =       49.562969205242
    Exchange-Corr. energy =      -10.304564763939
 Nuclear repulsion energy =        4.738912395318

 Numeric. integr. density =        8.999993617185

     Total iterative time =      0.3s



                  Occupations of the irreducible representations
                  ----------------------------------------------

                     irrep           alpha         beta
                     --------     --------     --------
                     a1                3.0          3.0
                     a2                0.0          0.0
                     b1                0.0          0.0
                     b2                0.0          0.0
                     e                 2.0          1.0


     --------------------------
     Expectation value of S2:  
     --------------------------
      <S2> =      0.7538 (Exact =     0.7500)



                         DFT ENERGY GRADIENTS

    atom               coordinates                        gradient
                 x          y          z           x          y          z
   1 F       0.000000   0.000000   0.239658    0.000000   0.000000   0.004855
   2 H       0.000000   0.000000  -1.659512    0.000000   0.000000  -0.004855

  no constraints, skipping    0.0000000000000000     

  Step       Energy      Delta E   Gmax     Grms     Xrms     Xmax   Walltime
  ---- ---------------- -------- -------- -------- -------- -------- --------
@    9     -99.82405982  1.3D-05  0.00486  0.00486  0.00048  0.00083      6.8
                                                       ok       ok  

 Restricting overall step due to uphill motion.   alpha=  0.25
  no constraints, skipping    0.0000000000000000     
  no constraints, skipping    0.0000000000000000     
  no constraints, skipping    0.0000000000000000     

                                 NWChem DFT Module
                                 -----------------


                  HF+ | Equilibrium Geometry | B3LYP/daug-cc-pVDZ



  Caching 1-el integrals 
   Time after variat. SCF:      6.9
   Time prior to 1st pass:      6.9
 Warning: spatial symmetry breaking:  beta =  2.37D-01
 Warning: spatial symmetry breaking:  beta =  2.36D-01
 Warning: spatial symmetry breaking:  beta =  2.35D-01
 Warning: spatial symmetry breaking:  beta =  2.34D-01
 Warning: spatial symmetry breaking:  beta =  2.33D-01
 Warning: spatial symmetry breaking:  beta =  2.33D-01
 Warning: spatial symmetry breaking:  beta =  2.33D-01
 Warning: spatial symmetry breaking:  beta =  2.33D-01


         Total DFT energy =      -99.824026480074
      One electron energy =     -143.835264422372
           Coulomb energy =       49.567803898845
    Exchange-Corr. energy =      -10.305223623164
 Nuclear repulsion energy =        4.748657666618

 Numeric. integr. density =        8.999994261095

     Total iterative time =      0.3s



                  Occupations of the irreducible representations
                  ----------------------------------------------

                     irrep           alpha         beta
                     --------     --------     --------
                     a1                3.0          3.0
                     a2                0.0          0.0
                     b1                0.0          0.0
                     b2                0.0          0.0
                     e                 2.0          1.0


     --------------------------
     Expectation value of S2:  
     --------------------------
      <S2> =      0.7538 (Exact =     0.7500)

 Line search: 
     step= 0.25 grad=-7.6D-05 hess= 8.4D-04 energy=    -99.824026 mode=bracket 
 new step= 0.05                   predicted energy=    -99.824062
  no constraints, skipping    0.0000000000000000     
  no constraints, skipping    0.0000000000000000     
  no constraints, skipping    0.0000000000000000     

          --------
          Step  10
          --------

                                 NWChem DFT Module
                                 -----------------


                  HF+ | Equilibrium Geometry | B3LYP/daug-cc-pVDZ



  Caching 1-el integrals 
   Time after variat. SCF:      7.1
   Time prior to 1st pass:      7.1
 Warning: spatial symmetry breaking:  beta =  2.37D-01
 Warning: spatial symmetry breaking:  beta =  2.36D-01
 Warning: spatial symmetry breaking:  beta =  2.35D-01
 Warning: spatial symmetry breaking:  beta =  2.34D-01
 Warning: spatial symmetry breaking:  beta =  2.33D-01
 Warning: spatial symmetry breaking:  beta =  2.33D-01
 Warning: spatial symmetry breaking:  beta =  2.33D-01
 Warning: spatial symmetry breaking:  beta =  2.33D-01


         Total DFT energy =      -99.824054170686
      One electron energy =     -143.823888601673
           Coulomb energy =       49.563844924765
    Exchange-Corr. energy =      -10.304684033883
 Nuclear repulsion energy =        4.740673540106

 Numeric. integr. density =        8.999993730031

     Total iterative time =      0.3s



                  Occupations of the irreducible representations
                  ----------------------------------------------

                     irrep           alpha         beta
                     --------     --------     --------
                     a1                3.0          3.0
                     a2                0.0          0.0
                     b1                0.0          0.0
                     b2                0.0          0.0
                     e                 2.0          1.0


     --------------------------
     Expectation value of S2:  
     --------------------------
      <S2> =      0.7538 (Exact =     0.7500)



                         DFT ENERGY GRADIENTS

    atom               coordinates                        gradient
                 x          y          z           x          y          z
   1 F       0.000000   0.000000   0.239305    0.000000   0.000000   0.004634
   2 H       0.000000   0.000000  -1.659159    0.000000   0.000000  -0.004634

  no constraints, skipping    0.0000000000000000     

  Step       Energy      Delta E   Gmax     Grms     Xrms     Xmax   Walltime
  ---- ---------------- -------- -------- -------- -------- -------- --------
@   10     -99.82405417  5.7D-06  0.00463  0.00463  0.00020  0.00035      7.5
                                                       ok       ok  

 Restricting overall step due to uphill motion.   alpha=  0.15
  no constraints, skipping    0.0000000000000000     
  no constraints, skipping    0.0000000000000000     
  no constraints, skipping    0.0000000000000000     

                                 NWChem DFT Module
                                 -----------------


                  HF+ | Equilibrium Geometry | B3LYP/daug-cc-pVDZ



  Caching 1-el integrals 
   Time after variat. SCF:      7.5
   Time prior to 1st pass:      7.5
 Warning: spatial symmetry breaking:  beta =  2.37D-01
 Warning: spatial symmetry breaking:  beta =  2.36D-01
 Warning: spatial symmetry breaking:  beta =  2.35D-01
 Warning: spatial symmetry breaking:  beta =  2.34D-01
 Warning: spatial symmetry breaking:  beta =  2.33D-01
 Warning: spatial symmetry breaking:  beta =  2.33D-01
 Warning: spatial symmetry breaking:  beta =  2.33D-01
 Warning: spatial symmetry breaking:  beta =  2.33D-01


         Total DFT energy =      -99.824035298254
      One electron energy =     -143.831789345743
           Coulomb energy =       49.566594268860
    Exchange-Corr. energy =      -10.305058731982
 Nuclear repulsion energy =        4.746218510611

 Numeric. integr. density =        8.999994095573

     Total iterative time =      0.3s



                  Occupations of the irreducible representations
                  ----------------------------------------------

                     irrep           alpha         beta
                     --------     --------     --------
                     a1                3.0          3.0
                     a2                0.0          0.0
                     b1                0.0          0.0
                     b2                0.0          0.0
                     e                 2.0          1.0


     --------------------------
     Expectation value of S2:  
     --------------------------
      <S2> =      0.7538 (Exact =     0.7500)

 Line search: 
     step= 0.15 grad=-6.9D-05 hess= 1.3D-03 energy=    -99.824035 mode=bracket 
 new step= 0.03                   predicted energy=    -99.824055
  no constraints, skipping    0.0000000000000000     
  no constraints, skipping    0.0000000000000000     
  no constraints, skipping    0.0000000000000000     

          --------
          Step  11
          --------

                                 NWChem DFT Module
                                 -----------------


                  HF+ | Equilibrium Geometry | B3LYP/daug-cc-pVDZ



  Caching 1-el integrals 
   Time after variat. SCF:      7.8
   Time prior to 1st pass:      7.8
 Warning: spatial symmetry breaking:  beta =  2.37D-01
 Warning: spatial symmetry breaking:  beta =  2.36D-01
 Warning: spatial symmetry breaking:  beta =  2.35D-01
 Warning: spatial symmetry breaking:  beta =  2.34D-01
 Warning: spatial symmetry breaking:  beta =  2.33D-01
 Warning: spatial symmetry breaking:  beta =  2.33D-01
 Warning: spatial symmetry breaking:  beta =  2.33D-01
 Warning: spatial symmetry breaking:  beta =  2.33D-01


         Total DFT energy =      -99.824050964973
      One electron energy =     -143.825280480663
           Coulomb energy =       49.564329417995
    Exchange-Corr. energy =      -10.304750048565
 Nuclear repulsion energy =        4.741650146260

 Numeric. integr. density =        8.999993793296

     Total iterative time =      0.3s



                  Occupations of the irreducible representations
                  ----------------------------------------------

                     irrep           alpha         beta
                     --------     --------     --------
                     a1                3.0          3.0
                     a2                0.0          0.0
                     b1                0.0          0.0
                     b2                0.0          0.0
                     e                 2.0          1.0


     --------------------------
     Expectation value of S2:  
     --------------------------
      <S2> =      0.7538 (Exact =     0.7500)



                         DFT ENERGY GRADIENTS

    atom               coordinates                        gradient
                 x          y          z           x          y          z
   1 F       0.000000   0.000000   0.239110    0.000000   0.000000   0.004511
   2 H       0.000000   0.000000  -1.658964    0.000000   0.000000  -0.004511

  no constraints, skipping    0.0000000000000000     

  Step       Energy      Delta E   Gmax     Grms     Xrms     Xmax   Walltime
  ---- ---------------- -------- -------- -------- -------- -------- --------
@   11     -99.82405096  3.2D-06  0.00451  0.00451  0.00011  0.00020      8.1
                                                       ok       ok  

 Restricting overall step due to uphill motion.   alpha=  0.70
  no constraints, skipping    0.0000000000000000     
  no constraints, skipping    0.0000000000000000     
  no constraints, skipping    0.0000000000000000     

                                 NWChem DFT Module
                                 -----------------


                  HF+ | Equilibrium Geometry | B3LYP/daug-cc-pVDZ



  Caching 1-el integrals 
   Time after variat. SCF:      8.2
   Time prior to 1st pass:      8.2
 Warning: spatial symmetry breaking:  beta =  2.37D-01
 Warning: spatial symmetry breaking:  beta =  2.36D-01
 Warning: spatial symmetry breaking:  beta =  2.35D-01
 Warning: spatial symmetry breaking:  beta =  2.34D-01
 Warning: spatial symmetry breaking:  beta =  2.33D-01
 Warning: spatial symmetry breaking:  beta =  2.33D-01
 Warning: spatial symmetry breaking:  beta =  2.33D-01
 Warning: spatial symmetry breaking:  beta =  2.33D-01


         Total DFT energy =      -99.823950460883
      One electron energy =     -143.861263186997
           Coulomb energy =       49.576868040793
    Exchange-Corr. energy =      -10.306459551547
 Nuclear repulsion energy =        4.766904236869

 Numeric. integr. density =        8.999995580763

     Total iterative time =      0.3s



                  Occupations of the irreducible representations
                  ----------------------------------------------

                     irrep           alpha         beta
                     --------     --------     --------
                     a1                3.0          3.0
                     a2                0.0          0.0
                     b1                0.0          0.0
                     b2                0.0          0.0
                     e                 2.0          1.0


     --------------------------
     Expectation value of S2:  
     --------------------------
      <S2> =      0.7538 (Exact =     0.7500)

 Line search: 
     step= 0.70 grad=-6.5D-05 hess= 3.0D-04 energy=    -99.823950 mode=bracket 
 new step= 0.11                   predicted energy=    -99.824054
  no constraints, skipping    0.0000000000000000     
  no constraints, skipping    0.0000000000000000     
  no constraints, skipping    0.0000000000000000     

          --------
          Step  12
          --------

                                 NWChem DFT Module
                                 -----------------


                  HF+ | Equilibrium Geometry | B3LYP/daug-cc-pVDZ



  Caching 1-el integrals 
   Time after variat. SCF:      8.5
   Time prior to 1st pass:      8.5
 Warning: spatial symmetry breaking:  beta =  2.37D-01
 Warning: spatial symmetry breaking:  beta =  2.36D-01
 Warning: spatial symmetry breaking:  beta =  2.35D-01
 Warning: spatial symmetry breaking:  beta =  2.34D-01
 Warning: spatial symmetry breaking:  beta =  2.33D-01
 Warning: spatial symmetry breaking:  beta =  2.33D-01
 Warning: spatial symmetry breaking:  beta =  2.33D-01
 Warning: spatial symmetry breaking:  beta =  2.33D-01


         Total DFT energy =      -99.824037627058
      One electron energy =     -143.830841676805
           Coulomb energy =       49.566257742132
    Exchange-Corr. energy =      -10.305013155226
 Nuclear repulsion energy =        4.745559462841

 Numeric. integr. density =        8.999994051335

     Total iterative time =      0.3s



                  Occupations of the irreducible representations
                  ----------------------------------------------

                     irrep           alpha         beta
                     --------     --------     --------
                     a1                3.0          3.0
                     a2                0.0          0.0
                     b1                0.0          0.0
                     b2                0.0          0.0
                     e                 2.0          1.0


     --------------------------
     Expectation value of S2:  
     --------------------------
      <S2> =      0.7538 (Exact =     0.7500)



                         DFT ENERGY GRADIENTS

    atom               coordinates                        gradient
                 x          y          z           x          y          z
   1 F       0.000000   0.000000   0.238328    0.000000   0.000000   0.004019
   2 H       0.000000   0.000000  -1.658182    0.000000   0.000000  -0.004019

  no constraints, skipping    0.0000000000000000     

  Step       Energy      Delta E   Gmax     Grms     Xrms     Xmax   Walltime
  ---- ---------------- -------- -------- -------- -------- -------- --------
@   12     -99.82403763  1.3D-05  0.00402  0.00402  0.00045  0.00078      8.8
                                                       ok       ok  

 Restricting overall step due to uphill motion.   alpha=  0.50
  no constraints, skipping    0.0000000000000000     
  no constraints, skipping    0.0000000000000000     
  no constraints, skipping    0.0000000000000000     

                                 NWChem DFT Module
                                 -----------------


                  HF+ | Equilibrium Geometry | B3LYP/daug-cc-pVDZ



  Caching 1-el integrals 
   Time after variat. SCF:      8.9
   Time prior to 1st pass:      8.9
 Warning: spatial symmetry breaking:  beta =  2.37D-01
 Warning: spatial symmetry breaking:  beta =  2.36D-01
 Warning: spatial symmetry breaking:  beta =  2.35D-01
 Warning: spatial symmetry breaking:  beta =  2.34D-01
 Warning: spatial symmetry breaking:  beta =  2.33D-01
 Warning: spatial symmetry breaking:  beta =  2.33D-01
 Warning: spatial symmetry breaking:  beta =  2.33D-01
 Warning: spatial symmetry breaking:  beta =  2.33D-01


         Total DFT energy =      -99.823974430271
      One electron energy =     -143.853691939380
           Coulomb energy =       49.574225294808
    Exchange-Corr. energy =      -10.306099150172
 Nuclear repulsion energy =        4.761591364473

 Numeric. integr. density =        8.999995183139

     Total iterative time =      0.3s



                  Occupations of the irreducible representations
                  ----------------------------------------------

                     irrep           alpha         beta
                     --------     --------     --------
                     a1                3.0          3.0
                     a2                0.0          0.0
                     b1                0.0          0.0
                     b2                0.0          0.0
                     e                 2.0          1.0


     --------------------------
     Expectation value of S2:  
     --------------------------
      <S2> =      0.7538 (Exact =     0.7500)

 Line search: 
     step= 0.50 grad=-5.1D-05 hess= 3.6D-04 energy=    -99.823974 mode=bracket 
 new step= 0.07                   predicted energy=    -99.824039
  no constraints, skipping    0.0000000000000000     
  no constraints, skipping    0.0000000000000000     
  no constraints, skipping    0.0000000000000000     

          --------
          Step  13
          --------

                                 NWChem DFT Module
                                 -----------------


                  HF+ | Equilibrium Geometry | B3LYP/daug-cc-pVDZ



  Caching 1-el integrals 
   Time after variat. SCF:      9.2
   Time prior to 1st pass:      9.2
 Warning: spatial symmetry breaking:  beta =  2.37D-01
 Warning: spatial symmetry breaking:  beta =  2.36D-01
 Warning: spatial symmetry breaking:  beta =  2.35D-01
 Warning: spatial symmetry breaking:  beta =  2.34D-01
 Warning: spatial symmetry breaking:  beta =  2.33D-01
 Warning: spatial symmetry breaking:  beta =  2.33D-01
 Warning: spatial symmetry breaking:  beta =  2.33D-01
 Warning: spatial symmetry breaking:  beta =  2.33D-01


         Total DFT energy =      -99.824029370059
      One electron energy =     -143.834133269481
           Coulomb energy =       49.567405556392
    Exchange-Corr. energy =      -10.305169548113
 Nuclear repulsion energy =        4.747867891143

 Numeric. integr. density =        8.999994207195

     Total iterative time =      0.3s



                  Occupations of the irreducible representations
                  ----------------------------------------------

                     irrep           alpha         beta
                     --------     --------     --------
                     a1                3.0          3.0
                     a2                0.0          0.0
                     b1                0.0          0.0
                     b2                0.0          0.0
                     e                 2.0          1.0


     --------------------------
     Expectation value of S2:  
     --------------------------
      <S2> =      0.7538 (Exact =     0.7500)



                         DFT ENERGY GRADIENTS

    atom               coordinates                        gradient
                 x          y          z           x          y          z
   1 F       0.000000   0.000000   0.237867    0.000000   0.000000   0.003727
   2 H       0.000000   0.000000  -1.657721    0.000000   0.000000  -0.003727

  no constraints, skipping    0.0000000000000000     

  Step       Energy      Delta E   Gmax     Grms     Xrms     Xmax   Walltime
  ---- ---------------- -------- -------- -------- -------- -------- --------
@   13     -99.82402937  8.3D-06  0.00373  0.00373  0.00027  0.00046      9.5
                                                       ok       ok  

 Restricting overall step due to uphill motion.   alpha=  0.25
  no constraints, skipping    0.0000000000000000     
  no constraints, skipping    0.0000000000000000     
  no constraints, skipping    0.0000000000000000     

                                 NWChem DFT Module
                                 -----------------


                  HF+ | Equilibrium Geometry | B3LYP/daug-cc-pVDZ



  Caching 1-el integrals 
   Time after variat. SCF:      9.6
   Time prior to 1st pass:      9.6
 Warning: spatial symmetry breaking:  beta =  2.37D-01
 Warning: spatial symmetry breaking:  beta =  2.36D-01
 Warning: spatial symmetry breaking:  beta =  2.35D-01
 Warning: spatial symmetry breaking:  beta =  2.34D-01
 Warning: spatial symmetry breaking:  beta =  2.33D-01
 Warning: spatial symmetry breaking:  beta =  2.33D-01
 Warning: spatial symmetry breaking:  beta =  2.33D-01
 Warning: spatial symmetry breaking:  beta =  2.33D-01


         Total DFT energy =      -99.824001110042
      One electron energy =     -143.844639142127
           Coulomb energy =       49.571068131311
    Exchange-Corr. energy =      -10.305668701838
 Nuclear repulsion energy =        4.755238602611

 Numeric. integr. density =        8.999994721151

     Total iterative time =      0.3s



                  Occupations of the irreducible representations
                  ----------------------------------------------

                     irrep           alpha         beta
                     --------     --------     --------
                     a1                3.0          3.0
                     a2                0.0          0.0
                     b1                0.0          0.0
                     b2                0.0          0.0
                     e                 2.0          1.0


     --------------------------
     Expectation value of S2:  
     --------------------------
      <S2> =      0.7538 (Exact =     0.7500)

 Line search: 
     step= 0.25 grad=-4.4D-05 hess= 6.3D-04 energy=    -99.824001 mode=bracket 
 new step= 0.03                   predicted energy=    -99.824030
  no constraints, skipping    0.0000000000000000     
  no constraints, skipping    0.0000000000000000     
  no constraints, skipping    0.0000000000000000     

          --------
          Step  14
          --------

                                 NWChem DFT Module
                                 -----------------


                  HF+ | Equilibrium Geometry | B3LYP/daug-cc-pVDZ



  Caching 1-el integrals 
   Time after variat. SCF:      9.9
   Time prior to 1st pass:      9.9
 Warning: spatial symmetry breaking:  beta =  2.37D-01
 Warning: spatial symmetry breaking:  beta =  2.36D-01
 Warning: spatial symmetry breaking:  beta =  2.35D-01
 Warning: spatial symmetry breaking:  beta =  2.34D-01
 Warning: spatial symmetry breaking:  beta =  2.33D-01
 Warning: spatial symmetry breaking:  beta =  2.33D-01
 Warning: spatial symmetry breaking:  beta =  2.33D-01
 Warning: spatial symmetry breaking:  beta =  2.33D-01


         Total DFT energy =      -99.824025602555
      One electron energy =     -143.835599998847
           Coulomb energy =       49.567918013889
    Exchange-Corr. energy =      -10.305239330334
 Nuclear repulsion energy =        4.748895712737

 Numeric. integr. density =        8.999994277399

     Total iterative time =      0.3s



                  Occupations of the irreducible representations
                  ----------------------------------------------

                     irrep           alpha         beta
                     --------     --------     --------
                     a1                3.0          3.0
                     a2                0.0          0.0
                     b1                0.0          0.0
                     b2                0.0          0.0
                     e                 2.0          1.0


     --------------------------
     Expectation value of S2:  
     --------------------------
      <S2> =      0.7538 (Exact =     0.7500)



                         DFT ENERGY GRADIENTS

    atom               coordinates                        gradient
                 x          y          z           x          y          z
   1 F       0.000000   0.000000   0.237662    0.000000   0.000000   0.003596
   2 H       0.000000   0.000000  -1.657516    0.000000   0.000000  -0.003596

  no constraints, skipping    0.0000000000000000     

  Step       Energy      Delta E   Gmax     Grms     Xrms     Xmax   Walltime
  ---- ---------------- -------- -------- -------- -------- -------- --------
@   14     -99.82402560  3.8D-06  0.00360  0.00360  0.00012  0.00021     10.2
                                                       ok       ok  

 Restricting overall step due to uphill motion.   alpha=  0.70
  no constraints, skipping    0.0000000000000000     
  no constraints, skipping    0.0000000000000000     
  no constraints, skipping    0.0000000000000000     

                                 NWChem DFT Module
                                 -----------------


                  HF+ | Equilibrium Geometry | B3LYP/daug-cc-pVDZ



  Caching 1-el integrals 
   Time after variat. SCF:     10.2
   Time prior to 1st pass:     10.2
 Warning: spatial symmetry breaking:  beta =  2.37D-01
 Warning: spatial symmetry breaking:  beta =  2.36D-01
 Warning: spatial symmetry breaking:  beta =  2.35D-01
 Warning: spatial symmetry breaking:  beta =  2.34D-01
 Warning: spatial symmetry breaking:  beta =  2.33D-01
 Warning: spatial symmetry breaking:  beta =  2.33D-01
 Warning: spatial symmetry breaking:  beta =  2.33D-01
 Warning: spatial symmetry breaking:  beta =  2.33D-01


         Total DFT energy =      -99.823941613222
[...]
  no constraints, skipping    0.0000000000000000     
  no constraints, skipping    0.0000000000000000     
  no constraints, skipping    0.0000000000000000     

          --------
          Step  47
          --------

                                 NWChem DFT Module
                                 -----------------


                  HF+ | Equilibrium Geometry | B3LYP/daug-cc-pVDZ



  Caching 1-el integrals 
   Time after variat. SCF:     33.3
   Time prior to 1st pass:     33.3
 Warning: spatial symmetry breaking:  beta =  2.37D-01
 Warning: spatial symmetry breaking:  beta =  2.36D-01
 Warning: spatial symmetry breaking:  beta =  2.35D-01
 Warning: spatial symmetry breaking:  beta =  2.34D-01
 Warning: spatial symmetry breaking:  beta =  2.33D-01
 Warning: spatial symmetry breaking:  beta =  2.33D-01
 Warning: spatial symmetry breaking:  beta =  2.33D-01
 Warning: spatial symmetry breaking:  beta =  2.33D-01


         Total DFT energy =      -99.823930541232
      One electron energy =     -143.867215466964
           Coulomb energy =       49.578943957778
    Exchange-Corr. energy =      -10.306742751336
 Nuclear repulsion energy =        4.771083719291

 Numeric. integr. density =        8.999995900377

     Total iterative time =      0.3s



                  Occupations of the irreducible representations
                  ----------------------------------------------

                     irrep           alpha         beta
                     --------     --------     --------
                     a1                3.0          3.0
                     a2                0.0          0.0
                     b1                0.0          0.0
                     b2                0.0          0.0
                     e                 2.0          1.0


     --------------------------
     Expectation value of S2:  
     --------------------------
      <S2> =      0.7538 (Exact =     0.7500)



                         DFT ENERGY GRADIENTS

    atom               coordinates                        gradient
                 x          y          z           x          y          z
   1 F       0.000000   0.000000   0.233255    0.000000   0.000000   0.000736
   2 H       0.000000   0.000000  -1.653109    0.000000   0.000000  -0.000736

  no constraints, skipping    0.0000000000000000     

  Step       Energy      Delta E   Gmax     Grms     Xrms     Xmax   Walltime
  ---- ---------------- -------- -------- -------- -------- -------- --------
@   47     -99.82393054  8.0D-07  0.00074  0.00074  0.00002  0.00003     33.7
                                                       ok       ok  

  no constraints, skipping    0.0000000000000000     
  no constraints, skipping    0.0000000000000000     
  no constraints, skipping    0.0000000000000000     

                                 NWChem DFT Module
                                 -----------------


                  HF+ | Equilibrium Geometry | B3LYP/daug-cc-pVDZ



  Caching 1-el integrals 
   Time after variat. SCF:     33.7
   Time prior to 1st pass:     33.7
 Warning: spatial symmetry breaking:  beta =  2.37D-01
 Warning: spatial symmetry breaking:  beta =  2.36D-01
 Warning: spatial symmetry breaking:  beta =  2.35D-01
 Warning: spatial symmetry breaking:  beta =  2.34D-01
 Warning: spatial symmetry breaking:  beta =  2.33D-01
 Warning: spatial symmetry breaking:  beta =  2.33D-01
 Warning: spatial symmetry breaking:  beta =  2.33D-01
 Warning: spatial symmetry breaking:  beta =  2.33D-01


         Total DFT energy =      -99.823901990669
      One electron energy =     -143.875307557694
           Coulomb energy =       49.581775402157
    Exchange-Corr. energy =      -10.307128750378
 Nuclear repulsion energy =        4.776758915246

 Numeric. integr. density =        8.999996342973

     Total iterative time =      0.3s



                  Occupations of the irreducible representations
                  ----------------------------------------------

                     irrep           alpha         beta
                     --------     --------     --------
                     a1                3.0          3.0
                     a2                0.0          0.0
                     b1                0.0          0.0
                     b2                0.0          0.0
                     e                 2.0          1.0


     --------------------------
     Expectation value of S2:  
     --------------------------
      <S2> =      0.7538 (Exact =     0.7500)

 Line search: 
     step= 1.00 grad=-1.6D-06 hess= 3.0D-05 energy=    -99.823902 mode=bracket 
 new step= 0.03                   predicted energy=    -99.823931
  no constraints, skipping    0.0000000000000000     
  no constraints, skipping    0.0000000000000000     
  no constraints, skipping    0.0000000000000000     

          --------
          Step  48
          --------

                                 NWChem DFT Module
                                 -----------------


                  HF+ | Equilibrium Geometry | B3LYP/daug-cc-pVDZ



  Caching 1-el integrals 
   Time after variat. SCF:     34.0
   Time prior to 1st pass:     34.0
 Warning: spatial symmetry breaking:  beta =  2.37D-01
 Warning: spatial symmetry breaking:  beta =  2.36D-01
 Warning: spatial symmetry breaking:  beta =  2.35D-01
 Warning: spatial symmetry breaking:  beta =  2.34D-01
 Warning: spatial symmetry breaking:  beta =  2.33D-01
 Warning: spatial symmetry breaking:  beta =  2.33D-01
 Warning: spatial symmetry breaking:  beta =  2.33D-01
 Warning: spatial symmetry breaking:  beta =  2.33D-01


         Total DFT energy =      -99.823929785539
      One electron energy =     -143.867436131048
           Coulomb energy =       49.579021109292
    Exchange-Corr. energy =      -10.306753270275
 Nuclear repulsion energy =        4.771238506491

 Numeric. integr. density =        8.999995912321

     Total iterative time =      0.3s



                  Occupations of the irreducible representations
                  ----------------------------------------------

                     irrep           alpha         beta
                     --------     --------     --------
                     a1                3.0          3.0
                     a2                0.0          0.0
                     b1                0.0          0.0
                     b2                0.0          0.0
                     e                 2.0          1.0


     --------------------------
     Expectation value of S2:  
     --------------------------
      <S2> =      0.7538 (Exact =     0.7500)



                         DFT ENERGY GRADIENTS

    atom               coordinates                        gradient
                 x          y          z           x          y          z
   1 F       0.000000   0.000000   0.233225    0.000000   0.000000   0.000716
   2 H       0.000000   0.000000  -1.653078    0.000000   0.000000  -0.000716

  no constraints, skipping    0.0000000000000000     

  Step       Energy      Delta E   Gmax     Grms     Xrms     Xmax   Walltime
  ---- ---------------- -------- -------- -------- -------- -------- --------
@   48     -99.82392979  7.6D-07  0.00072  0.00072  0.00002  0.00003     34.4
                                                       ok       ok  

  no constraints, skipping    0.0000000000000000     
  no constraints, skipping    0.0000000000000000     
  no constraints, skipping    0.0000000000000000     

                                 NWChem DFT Module
                                 -----------------


                  HF+ | Equilibrium Geometry | B3LYP/daug-cc-pVDZ



  Caching 1-el integrals 
   Time after variat. SCF:     34.4
   Time prior to 1st pass:     34.4
 Warning: spatial symmetry breaking:  beta =  2.37D-01
 Warning: spatial symmetry breaking:  beta =  2.36D-01
 Warning: spatial symmetry breaking:  beta =  2.35D-01
 Warning: spatial symmetry breaking:  beta =  2.34D-01
 Warning: spatial symmetry breaking:  beta =  2.33D-01
 Warning: spatial symmetry breaking:  beta =  2.33D-01
 Warning: spatial symmetry breaking:  beta =  2.33D-01
 Warning: spatial symmetry breaking:  beta =  2.33D-01


         Total DFT energy =      -99.823901997637
      One electron energy =     -143.875305618088
           Coulomb energy =       49.581774701316
    Exchange-Corr. energy =      -10.307128656112
 Nuclear repulsion energy =        4.776757575247

 Numeric. integr. density =        8.999996342867

     Total iterative time =      0.3s



                  Occupations of the irreducible representations
                  ----------------------------------------------

                     irrep           alpha         beta
                     --------     --------     --------
                     a1                3.0          3.0
                     a2                0.0          0.0
                     b1                0.0          0.0
                     b2                0.0          0.0
                     e                 2.0          1.0


     --------------------------
     Expectation value of S2:  
     --------------------------
      <S2> =      0.7538 (Exact =     0.7500)

 Line search: 
     step= 1.00 grad=-1.6D-06 hess= 2.9D-05 energy=    -99.823902 mode=bracket 
 new step= 0.03                   predicted energy=    -99.823930
  no constraints, skipping    0.0000000000000000     
  no constraints, skipping    0.0000000000000000     
  no constraints, skipping    0.0000000000000000     

          --------
          Step  49
          --------

                                 NWChem DFT Module
                                 -----------------


                  HF+ | Equilibrium Geometry | B3LYP/daug-cc-pVDZ



  Caching 1-el integrals 
   Time after variat. SCF:     34.7
   Time prior to 1st pass:     34.7
 Warning: spatial symmetry breaking:  beta =  2.37D-01
 Warning: spatial symmetry breaking:  beta =  2.36D-01
 Warning: spatial symmetry breaking:  beta =  2.35D-01
 Warning: spatial symmetry breaking:  beta =  2.34D-01
 Warning: spatial symmetry breaking:  beta =  2.33D-01
 Warning: spatial symmetry breaking:  beta =  2.33D-01
 Warning: spatial symmetry breaking:  beta =  2.33D-01
 Warning: spatial symmetry breaking:  beta =  2.33D-01


         Total DFT energy =      -99.823929069141
      One electron energy =     -143.867644966910
           Coulomb energy =       49.579094126982
    Exchange-Corr. energy =      -10.306763225608
 Nuclear repulsion energy =        4.771384996396

 Numeric. integr. density =        8.999995923632

     Total iterative time =      0.3s



                  Occupations of the irreducible representations
                  ----------------------------------------------

                     irrep           alpha         beta
                     --------     --------     --------
                     a1                3.0          3.0
                     a2                0.0          0.0
                     b1                0.0          0.0
                     b2                0.0          0.0
                     e                 2.0          1.0


     --------------------------
     Expectation value of S2:  
     --------------------------
      <S2> =      0.7538 (Exact =     0.7500)



                         DFT ENERGY GRADIENTS

    atom               coordinates                        gradient
                 x          y          z           x          y          z
   1 F       0.000000   0.000000   0.233196    0.000000   0.000000   0.000696
   2 H       0.000000   0.000000  -1.653049    0.000000   0.000000  -0.000696

  no constraints, skipping    0.0000000000000000     

  Step       Energy      Delta E   Gmax     Grms     Xrms     Xmax   Walltime
  ---- ---------------- -------- -------- -------- -------- -------- --------
@   49     -99.82392907  7.2D-07  0.00070  0.00070  0.00002  0.00003     35.1
                                                       ok       ok  

  no constraints, skipping    0.0000000000000000     
  no constraints, skipping    0.0000000000000000     
  no constraints, skipping    0.0000000000000000     

                                 NWChem DFT Module
                                 -----------------


                  HF+ | Equilibrium Geometry | B3LYP/daug-cc-pVDZ



  Caching 1-el integrals 
   Time after variat. SCF:     35.1
   Time prior to 1st pass:     35.1
 Warning: spatial symmetry breaking:  beta =  2.37D-01
 Warning: spatial symmetry breaking:  beta =  2.36D-01
 Warning: spatial symmetry breaking:  beta =  2.35D-01
 Warning: spatial symmetry breaking:  beta =  2.34D-01
 Warning: spatial symmetry breaking:  beta =  2.33D-01
 Warning: spatial symmetry breaking:  beta =  2.33D-01
 Warning: spatial symmetry breaking:  beta =  2.33D-01
 Warning: spatial symmetry breaking:  beta =  2.33D-01


         Total DFT energy =      -99.823902004431
      One electron energy =     -143.875303705365
           Coulomb energy =       49.581774010957
    Exchange-Corr. energy =      -10.307128563191
 Nuclear repulsion energy =        4.776756253168

 Numeric. integr. density =        8.999996342763

     Total iterative time =      0.3s



                  Occupations of the irreducible representations
                  ----------------------------------------------

                     irrep           alpha         beta
                     --------     --------     --------
                     a1                3.0          3.0
                     a2                0.0          0.0
                     b1                0.0          0.0
                     b2                0.0          0.0
                     e                 2.0          1.0


     --------------------------
     Expectation value of S2:  
     --------------------------
      <S2> =      0.7538 (Exact =     0.7500)

 Line search: 
     step= 1.00 grad=-1.5D-06 hess= 2.9D-05 energy=    -99.823902 mode=bracket 
 new step= 0.03                   predicted energy=    -99.823929
  no constraints, skipping    0.0000000000000000     
  no constraints, skipping    0.0000000000000000     
  no constraints, skipping    0.0000000000000000     

          --------
          Step  50
          --------

                                 NWChem DFT Module
                                 -----------------


                  HF+ | Equilibrium Geometry | B3LYP/daug-cc-pVDZ



  Caching 1-el integrals 
   Time after variat. SCF:     35.4
   Time prior to 1st pass:     35.4
 Warning: spatial symmetry breaking:  beta =  2.37D-01
 Warning: spatial symmetry breaking:  beta =  2.36D-01
 Warning: spatial symmetry breaking:  beta =  2.35D-01
 Warning: spatial symmetry breaking:  beta =  2.34D-01
 Warning: spatial symmetry breaking:  beta =  2.33D-01
 Warning: spatial symmetry breaking:  beta =  2.33D-01
 Warning: spatial symmetry breaking:  beta =  2.33D-01
 Warning: spatial symmetry breaking:  beta =  2.33D-01


         Total DFT energy =      -99.823928389086
      One electron energy =     -143.867842897437
           Coulomb energy =       49.579163333405
    Exchange-Corr. energy =      -10.306772661313
 Nuclear repulsion energy =        4.771523836258

 Numeric. integr. density =        8.999995934359

     Total iterative time =      0.3s



                  Occupations of the irreducible representations
                  ----------------------------------------------

                     irrep           alpha         beta
                     --------     --------     --------
                     a1                3.0          3.0
                     a2                0.0          0.0
                     b1                0.0          0.0
                     b2                0.0          0.0
                     e                 2.0          1.0


     --------------------------
     Expectation value of S2:  
     --------------------------
      <S2> =      0.7538 (Exact =     0.7500)



                         DFT ENERGY GRADIENTS

    atom               coordinates                        gradient
                 x          y          z           x          y          z
   1 F       0.000000   0.000000   0.233168    0.000000   0.000000   0.000678
   2 H       0.000000   0.000000  -1.653022    0.000000   0.000000  -0.000678

  no constraints, skipping    0.0000000000000000     

  Step       Energy      Delta E   Gmax     Grms     Xrms     Xmax   Walltime
  ---- ---------------- -------- -------- -------- -------- -------- --------
@   50     -99.82392839  6.8D-07  0.00068  0.00068  0.00002  0.00003     35.8
                                                       ok       ok  


 ---------------------------------------------------------------
 Failed to converge in maximum number of steps or available time
 ---------------------------------------------------------------


  Step       Energy      Delta E   Gmax     Grms     Xrms     Xmax   Walltime
  ---- ---------------- -------- -------- -------- -------- -------- --------
@   50     -99.82392839  6.8D-07  0.00068  0.00068  0.00002  0.00003     35.8
                                                       ok       ok  



                         Geometry "geometry" -> "geometry"
                         ---------------------------------

 Output coordinates in angstroms (scale by  1.889725989 to convert to a.u.)

  No.       Tag          Charge          X              Y              Z
 ---- ---------------- ---------- -------------- -------------- --------------
    1 F                    9.0000     0.00000000     0.00000000     0.12338726
    2 H                    1.0000     0.00000000     0.00000000    -0.87474151

      Atomic Mass 
      ----------- 

      F                 18.998400
      H                  1.007825


 Effective nuclear repulsion energy (a.u.)       4.7715238363

            Nuclear Dipole moment (a.u.) 
            ----------------------------
        X                 Y               Z
 ---------------- ---------------- ----------------
     0.0000000000     0.0000000000     0.4454913034

      Symmetry information
      --------------------

 Group name             C4v       
 Group number             18
 Group order               8
 No. of unique centers     2

      Symmetry unique atoms

     1    2


                Final and change from initial internal coordinates
                --------------------------------------------------



                                Z-matrix (autoz)
                                -------- 

 Units are Angstrom for bonds and degrees for angles

      Type          Name      I     J     K     L     M      Value       Change
      ----------- --------  ----- ----- ----- ----- ----- ---------- ----------
    1 Stretch                  1     2                       0.99813    0.05894

 ------------------------------------------------------------------------
 dft optimize failed                                                                                0
 ------------------------------------------------------------------------
 ------------------------------------------------------------------------
  current input line : 
    30: task dft optimize
 ------------------------------------------------------------------------
 ------------------------------------------------------------------------
 This type of error is most commonly associated with calculations not reaching convergence criteria
 ------------------------------------------------------------------------
 For more information see the NWChem manual at https://github.com/nwchemgit/nwchem/wiki


 For further details see manual section:                                                                                                                                                                                                                                                                
