 argument  1 = BeCl2_b3lyp_geomoptim.nw



============================== echo of input deck ==============================
echo

start molecule

title "BeCl2 | Equilibrium Geometry | B3LYP/6-31G(d)"
charge 0

print low

geometry units angstroms print xyz autosym
Be    -0.697491    1.128208    0.000000
Cl    -2.410908   -0.046133   -0.000000
Cl     0.980802   -0.095806    0.000000
end

basis
  * library 6-31G*
end

dft
  xc b3lyp
  mult 1
end

task dft optimize
================================================================================


                                         
                                         


             Northwest Computational Chemistry Package (NWChem) 7.0.2
             --------------------------------------------------------


                    Environmental Molecular Sciences Laboratory
                       Pacific Northwest National Laboratory
                                Richland, WA 99352

                              Copyright (c) 1994-2020
                       Pacific Northwest National Laboratory
                            Battelle Memorial Institute

             NWChem is an open-source computational chemistry package
                        distributed under the terms of the
                      Educational Community License (ECL) 2.0
             A copy of the license is included with this distribution
                              in the LICENSE.TXT file

                                  ACKNOWLEDGMENT
                                  --------------

            This software and its documentation were developed at the
            EMSL at Pacific Northwest National Laboratory, a multiprogram
            national laboratory, operated for the U.S. Department of Energy
            by Battelle under Contract Number DE-AC05-76RL01830. Support
            for this work was provided by the Department of Energy Office
            of Biological and Environmental Research, Office of Basic
            Energy Sciences, and the Office of Advanced Scientific Computing.


           Job information
           ---------------

    hostname        = DESKTOP-7OTLCGO
    program         = nwchem
    date            = Tue Aug 26 14:24:00 2025

    compiled        = Sat_Apr_09_17:12:10_2022
    source          = /build/nwchem-f1f4gx/nwchem-7.0.2/build-openmpi
    nwchem branch   = 7.0.2
    nwchem revision = N/A
    ga revision     = 5.8.1
    use scalapack   = T
    input           = BeCl2_b3lyp_geomoptim.nw
    prefix          = molecule.
    data base       = ./molecule.db
    status          = startup
    nproc           =        8
    time left       =     -1s



           Memory information
           ------------------

    heap     =   13107196 doubles =    100.0 Mbytes
    stack    =   13107201 doubles =    100.0 Mbytes
    global   =   26214400 doubles =    200.0 Mbytes (distinct from heap & stack)
    total    =   52428797 doubles =    400.0 Mbytes
    verify   = yes
    hardfail = no 


           Directory information
           ---------------------

  0 permanent = .
  0 scratch   = .




                                NWChem Input Module
                                -------------------


                   BeCl2 | Equilibrium Geometry | B3LYP/6-31G(d)
                   ---------------------------------------------

 Scaling coordinates for geometry "geometry" by  1.889725989
 (inverse scale =  0.529177249)


          ------
          auto-z
          ------
  no constraints, skipping    0.0000000000000000     
  no constraints, skipping    0.0000000000000000     


                             Geometry "geometry" -> ""
                             -------------------------

 Output coordinates in angstroms (scale by  1.889725989 to convert to a.u.)

  No.       Tag          Charge          X              Y              Z
 ---- ---------------- ---------- -------------- -------------- --------------
    1 Be                   4.0000     0.00000000     0.00000000     1.07306334
    2 Cl                  17.0000     1.69603686     0.00000000    -0.12624275
    3 Cl                  17.0000    -1.69603686     0.00000000    -0.12624275

      Atomic Mass 
      ----------- 

      Be                 9.012180
      Cl                34.968850


 Effective nuclear repulsion energy (a.u.)      79.7313951265

            Nuclear Dipole moment (a.u.) 
            ----------------------------
        X                 Y               Z
 ---------------- ---------------- ----------------
     0.0000000000     0.0000000000     0.0000000000

      Symmetry information
      --------------------

 Group name             C2v       
 Group number             16
 Group order               4
 No. of unique centers     2

      Symmetry unique atoms

     1    2



                                Z-matrix (autoz)
                                -------- 

 Units are Angstrom for bonds and degrees for angles

      Type          Name      I     J     K     L     M      Value
      ----------- --------  ----- ----- ----- ----- ----- ----------
    1 Stretch                  1     2                       2.07723
    2 Stretch                  1     3                       2.07723
    3 Bend                     2     1     3               109.47001


            XYZ format geometry
            -------------------
     3
 geometry
 Be                    0.00000000     0.00000000     1.07306334
 Cl                    1.69603686     0.00000000    -0.12624275
 Cl                   -1.69603686     0.00000000    -0.12624275

 ==============================================================================
                                internuclear distances
 ------------------------------------------------------------------------------
       center one      |      center two      | atomic units |  angstroms
 ------------------------------------------------------------------------------
    2 Cl               |   1 Be               |     3.92539  |     2.07723
    3 Cl               |   1 Be               |     3.92539  |     2.07723
 ------------------------------------------------------------------------------
                         number of included internuclear distances:          2
 ==============================================================================



 ==============================================================================
                                 internuclear angles
 ------------------------------------------------------------------------------
        center 1       |       center 2       |       center 3       |  degrees
 ------------------------------------------------------------------------------
    2 Cl               |   1 Be               |   3 Cl               |   109.47
 ------------------------------------------------------------------------------
                            number of included internuclear angles:          1
 ==============================================================================





 Summary of "ao basis" -> "" (cartesian)
 ------------------------------------------------------------------------------
       Tag                 Description            Shells   Functions and Types
 ---------------- ------------------------------  ------  ---------------------
 *                           6-31G*                   on all atoms 




                           NWChem Geometry Optimization
                           ----------------------------




                   BeCl2 | Equilibrium Geometry | B3LYP/6-31G(d)


  no constraints, skipping    0.0000000000000000     
 maximum gradient threshold         (gmax) =   0.000450
 rms gradient threshold             (grms) =   0.000300
 maximum cartesian step threshold   (xmax) =   0.001800
 rms cartesian step threshold       (xrms) =   0.001200
 fixed trust radius                (trust) =   0.300000
 maximum step size to saddle      (sadstp) =   0.100000
 energy precision                  (eprec) =   5.0D-06
 maximum number of steps          (nptopt) =   20
 initial hessian option           (inhess) =    0
 line search option               (linopt) =    1
 hessian update option            (modupd) =    1
 saddle point option              (modsad) =    0
 initial eigen-mode to follow     (moddir) =    0
 initial variable to follow       (vardir) =    0
 follow first negative mode     (firstneg) =    T
 apply conjugacy                    (opcg) =    F
 source of zmatrix                         =   autoz   


          -------------------
          Energy Minimization
          -------------------


 Names of Z-matrix variables 
    1              2              3         

 Variables with the same non-blank name are constrained to be equal


 Using diagonal initial Hessian 
 Scaling for Hessian diagonals: bonds = 1.00  angles = 0.25  torsions = 0.10

          --------
          Step   0
          --------

                                 NWChem DFT Module
                                 -----------------


                   BeCl2 | Equilibrium Geometry | B3LYP/6-31G(d)


                      Basis "ao basis" -> "ao basis" (cartesian)
                      -----
  Be (Beryllium)
  --------------
            Exponent  Coefficients 
       -------------- ---------------------------------------------------------
  1 S  1.26458570E+03  0.001945
  1 S  1.89936810E+02  0.014835
  1 S  4.31590890E+01  0.072091
  1 S  1.20986630E+01  0.237154
  1 S  3.80632320E+00  0.469199
  1 S  1.27289030E+00  0.356520

  2 S  3.19646310E+00 -0.112649
  2 S  7.47813300E-01 -0.229506
  2 S  2.19966300E-01  1.186917

  3 P  3.19646310E+00  0.055980
  3 P  7.47813300E-01  0.261551
  3 P  2.19966300E-01  0.793972

  4 S  8.23099000E-02  1.000000

  5 P  8.23099000E-02  1.000000

  6 D  4.00000000E-01  1.000000

  Cl (Chlorine)
  -------------
            Exponent  Coefficients 
       -------------- ---------------------------------------------------------
  1 S  2.51801000E+04  0.001833
  1 S  3.78035000E+03  0.014034
  1 S  8.60474000E+02  0.069097
  1 S  2.42145000E+02  0.237452
  1 S  7.73349000E+01  0.483034
  1 S  2.62470000E+01  0.339856

  2 S  4.91765000E+02 -0.002297
  2 S  1.16984000E+02 -0.030714
  2 S  3.74153000E+01 -0.112528
  2 S  1.37834000E+01  0.045016
  2 S  5.45215000E+00  0.589353
  2 S  2.22588000E+00  0.465206

  3 P  4.91765000E+02  0.003989
  3 P  1.16984000E+02  0.030318
  3 P  3.74153000E+01  0.129880
  3 P  1.37834000E+01  0.327951
  3 P  5.45215000E+00  0.453527
  3 P  2.22588000E+00  0.252154

  4 S  3.18649000E+00 -0.251830
  4 S  1.14427000E+00  0.061589
  4 S  4.20377000E-01  1.060180

  5 P  3.18649000E+00 -0.014299
  5 P  1.14427000E+00  0.323572
  5 P  4.20377000E-01  0.743507

  6 S  1.42657000E-01  1.000000

  7 P  1.42657000E-01  1.000000

  8 D  7.50000000E-01  1.000000



 Summary of "ao basis" -> "ao basis" (cartesian)
 ------------------------------------------------------------------------------
       Tag                 Description            Shells   Functions and Types
 ---------------- ------------------------------  ------  ---------------------
 Be                          6-31G*                  6       15   3s2p1d
 Cl                          6-31G*                  8       19   4s3p1d



  Caching 1-el integrals 
   Time after variat. SCF:      1.0
   Time prior to 1st pass:      1.0
  Resetting Diis


         Total DFT energy =     -935.220390550341
      One electron energy =    -1449.950123633491
           Coulomb energy =      494.338185051263
    Exchange-Corr. energy =      -59.339847094642
 Nuclear repulsion energy =       79.731395126529

 Numeric. integr. density =       38.000002409745

     Total iterative time =      0.3s



                  Occupations of the irreducible representations
                  ----------------------------------------------

                     irrep           alpha         beta
                     --------     --------     --------
                     a1                8.0          8.0
                     a2                2.0          2.0
                     b1                7.0          7.0
                     b2                2.0          2.0



                         DFT ENERGY GRADIENTS

    atom               coordinates                        gradient
                 x          y          z           x          y          z
   1 Be      0.000000   0.000000   2.027796    0.000000   0.000000   0.090949
   2 Cl      3.205045   0.000000  -0.238564    0.032269   0.000000  -0.045474
   3 Cl     -3.205045   0.000000  -0.238564   -0.032269   0.000000  -0.045474

  no constraints, skipping    0.0000000000000000     

@ Step       Energy      Delta E   Gmax     Grms     Xrms     Xmax   Walltime
@ ---- ---------------- -------- -------- -------- -------- -------- --------
@    0    -935.22039055  0.0D+00  0.05260  0.04834  0.00000  0.00000      1.5
                                                                    

 Restricting large step in mode    3 eval= 6.2D-02 step= 6.2D-01 new= 3.0D-01
  no constraints, skipping    0.0000000000000000     
  no constraints, skipping    0.0000000000000000     
  no constraints, skipping    0.0000000000000000     
  no constraints, skipping    0.0000000000000000     
  no constraints, skipping    0.0000000000000000     

                                 NWChem DFT Module
                                 -----------------


                   BeCl2 | Equilibrium Geometry | B3LYP/6-31G(d)



  Caching 1-el integrals 
   Time after variat. SCF:      1.5
   Time prior to 1st pass:      1.5


         Total DFT energy =     -935.251037654255
      One electron energy =    -1454.205431246591
           Coulomb energy =      496.398655356257
    Exchange-Corr. energy =      -59.383719368440
 Nuclear repulsion energy =       81.939457604518

 Numeric. integr. density =       37.999999426743

     Total iterative time =      0.2s



                  Occupations of the irreducible representations
                  ----------------------------------------------

                     irrep           alpha         beta
                     --------     --------     --------
                     a1                8.0          8.0
                     a2                2.0          2.0
                     b1                7.0          7.0
                     b2                2.0          2.0

 Line search: 
     step= 1.00 grad=-3.4D-02 hess= 3.4D-03 energy=   -935.251038 mode=restrict
 new step= 4.00                   predicted energy=   -935.301820
  no constraints, skipping    0.0000000000000000     
  no constraints, skipping    0.0000000000000000     
  no constraints, skipping    0.0000000000000000     
  no constraints, skipping    0.0000000000000000     
  no constraints, skipping    0.0000000000000000     
  no constraints, skipping    0.0000000000000000     

          --------
          Step   1
          --------

                                 NWChem DFT Module
                                 -----------------


                   BeCl2 | Equilibrium Geometry | B3LYP/6-31G(d)



  Caching 1-el integrals 
   Time after variat. SCF:      1.8
   Time prior to 1st pass:      1.8


         Total DFT energy =     -935.251943938178
      One electron energy =    -1476.993442140913
           Coulomb energy =      507.719062569625
    Exchange-Corr. energy =      -59.575167958042
 Nuclear repulsion energy =       93.597603591152

 Numeric. integr. density =       38.000000784834

     Total iterative time =      0.2s



                  Occupations of the irreducible representations
                  ----------------------------------------------

                     irrep           alpha         beta
                     --------     --------     --------
                     a1                8.0          8.0
                     a2                2.0          2.0
                     b1                7.0          7.0
                     b2                2.0          2.0



                         DFT ENERGY GRADIENTS

    atom               coordinates                        gradient
                 x          y          z           x          y          z
   1 Be      0.000000   0.000000   1.117395    0.000000   0.000000  -0.040328
   2 Cl      2.932837   0.000000   0.216636   -0.112323   0.000000   0.020164
   3 Cl     -2.932837   0.000000   0.216636    0.112323   0.000000   0.020164

  no constraints, skipping    0.0000000000000000     

  Step       Energy      Delta E   Gmax     Grms     Xrms     Xmax   Walltime
  ---- ---------------- -------- -------- -------- -------- -------- --------
@    1    -935.25194394 -3.2D-02  0.11329  0.09339  0.40000  0.96727      2.1
                                                                    

 Restricting large step in mode    2 eval= 2.4D-01 step= 6.8D-01 new= 3.0D-01
  no constraints, skipping    0.0000000000000000     
  no constraints, skipping    0.0000000000000000     
  no constraints, skipping    0.0000000000000000     
  no constraints, skipping    0.0000000000000000     
  no constraints, skipping    0.0000000000000000     

                                 NWChem DFT Module
                                 -----------------


                   BeCl2 | Equilibrium Geometry | B3LYP/6-31G(d)



  Caching 1-el integrals 
   Time after variat. SCF:      2.1
   Time prior to 1st pass:      2.1


         Total DFT energy =     -935.280522451413
      One electron energy =    -1464.926628204187
           Coulomb energy =      501.649810727362
    Exchange-Corr. energy =      -59.490971626918
 Nuclear repulsion energy =       87.487266652330

 Numeric. integr. density =       38.000000181350

     Total iterative time =      0.2s



                  Occupations of the irreducible representations
                  ----------------------------------------------

                     irrep           alpha         beta
                     --------     --------     --------
                     a1                8.0          8.0
                     a2                2.0          2.0
                     b1                7.0          7.0
                     b2                2.0          2.0

 Line search: 
     step= 1.00 grad=-5.0D-02 hess= 2.2D-02 energy=   -935.280522 mode=downhill
 new step= 1.16                   predicted energy=   -935.281067
  no constraints, skipping    0.0000000000000000     
  no constraints, skipping    0.0000000000000000     
  no constraints, skipping    0.0000000000000000     
  no constraints, skipping    0.0000000000000000     
  no constraints, skipping    0.0000000000000000     

          --------
          Step   2
          --------

                                 NWChem DFT Module
                                 -----------------


                   BeCl2 | Equilibrium Geometry | B3LYP/6-31G(d)



  Caching 1-el integrals 
   Time after variat. SCF:      2.4
   Time prior to 1st pass:      2.4


         Total DFT energy =     -935.281798192963
      One electron energy =    -1463.183317115352
           Coulomb energy =      500.774463076236
    Exchange-Corr. energy =      -59.479155003711
 Nuclear repulsion energy =       86.606210849863

 Numeric. integr. density =       38.000000653103

     Total iterative time =      0.2s



                  Occupations of the irreducible representations
                  ----------------------------------------------

                     irrep           alpha         beta
                     --------     --------     --------
                     a1                8.0          8.0
                     a2                2.0          2.0
                     b1                7.0          7.0
                     b2                2.0          2.0



                         DFT ENERGY GRADIENTS

    atom               coordinates                        gradient
                 x          y          z           x          y          z
   1 Be      0.000000   0.000000   1.264551    0.000000   0.000000   0.010472
   2 Cl      3.147714   0.000000   0.143058   -0.021950   0.000000  -0.005236
   3 Cl     -3.147714   0.000000   0.143058    0.021950  -0.000000  -0.005236

  no constraints, skipping    0.0000000000000000     

  Step       Energy      Delta E   Gmax     Grms     Xrms     Xmax   Walltime
  ---- ---------------- -------- -------- -------- -------- -------- --------
@    2    -935.28179819 -3.0D-02  0.02175  0.01991  0.11685  0.20991      2.7
                                                                    

 Restricting large step in mode    1 eval= 4.8D-02 step= 4.1D-01 new= 3.0D-01
 Restricting overall step due to large component. alpha=  0.98
  no constraints, skipping    0.0000000000000000     
  no constraints, skipping    0.0000000000000000     
  no constraints, skipping    0.0000000000000000     
  no constraints, skipping    0.0000000000000000     
  no constraints, skipping    0.0000000000000000     

                                 NWChem DFT Module
                                 -----------------


                   BeCl2 | Equilibrium Geometry | B3LYP/6-31G(d)



  Caching 1-el integrals 
   Time after variat. SCF:      2.7
   Time prior to 1st pass:      2.7


         Total DFT energy =     -935.288322611278
      One electron energy =    -1458.859059848426
           Coulomb energy =      498.558998388668
    Exchange-Corr. energy =      -59.466101594597
 Nuclear repulsion energy =       84.477840443077

 Numeric. integr. density =       37.999999942611

     Total iterative time =      0.2s



                  Occupations of the irreducible representations
                  ----------------------------------------------

                     irrep           alpha         beta
                     --------     --------     --------
                     a1                8.0          8.0
                     a2                2.0          2.0
                     b1                7.0          7.0
                     b2                2.0          2.0

 Line search: 
     step= 0.98 grad=-8.2D-03 hess= 1.6D-03 energy=   -935.288323 mode=downhill
 new step= 2.63                   predicted energy=   -935.292516
  no constraints, skipping    0.0000000000000000     
  no constraints, skipping    0.0000000000000000     
  no constraints, skipping    0.0000000000000000     
  no constraints, skipping    0.0000000000000000     
  no constraints, skipping    0.0000000000000000     

          --------
          Step   3
          --------

                                 NWChem DFT Module
                                 -----------------


                   BeCl2 | Equilibrium Geometry | B3LYP/6-31G(d)



  Caching 1-el integrals 
   Time after variat. SCF:      2.9
   Time prior to 1st pass:      2.9


         Total DFT energy =     -935.293596050909
      One electron energy =    -1453.273817348060
           Coulomb energy =      495.707305660314
    Exchange-Corr. energy =      -59.446390223480
 Nuclear repulsion energy =       81.719305860317

 Numeric. integr. density =       37.999999686035

     Total iterative time =      0.2s



                  Occupations of the irreducible representations
                  ----------------------------------------------

                     irrep           alpha         beta
                     --------     --------     --------
                     a1                8.0          8.0
                     a2                2.0          2.0
                     b1                7.0          7.0
                     b2                2.0          2.0



                         DFT ENERGY GRADIENTS

    atom               coordinates                        gradient
                 x          y          z           x          y          z
   1 Be      0.000000   0.000000   0.815548    0.000000   0.000000   0.009262
   2 Cl      3.418371   0.000000   0.367559    0.007391   0.000000  -0.004631
   3 Cl     -3.418371   0.000000   0.367559   -0.007391   0.000000  -0.004631

  no constraints, skipping    0.0000000000000000     

  Step       Energy      Delta E   Gmax     Grms     Xrms     Xmax   Walltime
  ---- ---------------- -------- -------- -------- -------- -------- --------
@    3    -935.29359605 -1.2D-02  0.00793  0.00752  0.22633  0.44299      3.3
                                                                    

  no constraints, skipping    0.0000000000000000     
  no constraints, skipping    0.0000000000000000     
  no constraints, skipping    0.0000000000000000     
  no constraints, skipping    0.0000000000000000     
  no constraints, skipping    0.0000000000000000     

                                 NWChem DFT Module
                                 -----------------


                   BeCl2 | Equilibrium Geometry | B3LYP/6-31G(d)



  Caching 1-el integrals 
   Time after variat. SCF:      3.3
   Time prior to 1st pass:      3.3


         Total DFT energy =     -935.295167632011
      One electron energy =    -1453.405046035989
           Coulomb energy =      495.761839381702
    Exchange-Corr. energy =      -59.450876356089
 Nuclear repulsion energy =       81.798915378365

 Numeric. integr. density =       37.999999708017

     Total iterative time =      0.2s



                  Occupations of the irreducible representations
                  ----------------------------------------------

                     irrep           alpha         beta
                     --------     --------     --------
                     a1                8.0          8.0
                     a2                2.0          2.0
                     b1                7.0          7.0
                     b2                2.0          2.0

 Line search: 
     step= 1.00 grad=-2.2D-03 hess= 6.5D-04 energy=   -935.295168 mode=downhill
 new step= 1.71                   predicted energy=   -935.295494
  no constraints, skipping    0.0000000000000000     
  no constraints, skipping    0.0000000000000000     
  no constraints, skipping    0.0000000000000000     
  no constraints, skipping    0.0000000000000000     
  no constraints, skipping    0.0000000000000000     
  no constraints, skipping    0.0000000000000000     
  no constraints, skipping    0.0000000000000000     
  no constraints, skipping    0.0000000000000000     

          --------
          Step   4
          --------

                                 NWChem DFT Module
                                 -----------------


                   BeCl2 | Equilibrium Geometry | B3LYP/6-31G(d)



  Caching 1-el integrals 
   Time after variat. SCF:      3.5
   Time prior to 1st pass:      3.5


         Total DFT energy =     -935.295509316120
      One electron energy =    -1453.827610631316
           Coulomb energy =      495.973623321545
    Exchange-Corr. energy =      -59.454285627852
 Nuclear repulsion energy =       82.012763621502

 Numeric. integr. density =       37.999999937393

     Total iterative time =      0.2s



                  Occupations of the irreducible representations
                  ----------------------------------------------

                     irrep           alpha         beta
                     --------     --------     --------
                     a1                8.0          8.0
                     a2                2.0          2.0
                     b1                7.0          7.0
                     b2                2.0          2.0



                         DFT ENERGY GRADIENTS

    atom               coordinates                        gradient
                 x          y          z           x          y          z
   1 Be      0.000000   0.000000   0.508050    0.000000   0.000000  -0.000237
   2 Cl      3.420187   0.000000   0.521309    0.002867   0.000000   0.000118
   3 Cl     -3.420187   0.000000   0.521309   -0.002867   0.000000   0.000118

  no constraints, skipping    0.0000000000000000     

  Step       Energy      Delta E   Gmax     Grms     Xrms     Xmax   Walltime
  ---- ---------------- -------- -------- -------- -------- -------- --------
@    4    -935.29550932 -1.9D-03  0.00287  0.00234  0.12555  0.30751      3.8
                                                                    

  no constraints, skipping    0.0000000000000000     
  no constraints, skipping    0.0000000000000000     
  no constraints, skipping    0.0000000000000000     
  no constraints, skipping    0.0000000000000000     
  no constraints, skipping    0.0000000000000000     
  no constraints, skipping    0.0000000000000000     
  no constraints, skipping    0.0000000000000000     
  no constraints, skipping    0.0000000000000000     

                                 NWChem DFT Module
                                 -----------------


                   BeCl2 | Equilibrium Geometry | B3LYP/6-31G(d)



  Caching 1-el integrals 
   Time after variat. SCF:      3.8
   Time prior to 1st pass:      3.8


         Total DFT energy =     -935.295547912553
      One electron energy =    -1454.334179556874
           Coulomb energy =      496.225345331030
    Exchange-Corr. energy =      -59.456935944186
 Nuclear repulsion energy =       82.270222257476

 Numeric. integr. density =       37.999999978139

     Total iterative time =      0.2s



                  Occupations of the irreducible representations
                  ----------------------------------------------

                     irrep           alpha         beta
                     --------     --------     --------
                     a1                8.0          8.0
                     a2                2.0          2.0
                     b1                7.0          7.0
                     b2                2.0          2.0

 Line search: 
     step= 1.00 grad=-6.6D-05 hess= 2.7D-05 energy=   -935.295548 mode=downhill
 new step= 1.21                   predicted energy=   -935.295549
  no constraints, skipping    0.0000000000000000     
  no constraints, skipping    0.0000000000000000     
  no constraints, skipping    0.0000000000000000     
  no constraints, skipping    0.0000000000000000     
  no constraints, skipping    0.0000000000000000     
  no constraints, skipping    0.0000000000000000     
  no constraints, skipping    0.0000000000000000     
  no constraints, skipping    0.0000000000000000     

          --------
          Step   5
          --------

                                 NWChem DFT Module
                                 -----------------


                   BeCl2 | Equilibrium Geometry | B3LYP/6-31G(d)



  Caching 1-el integrals 
   Time after variat. SCF:      4.0
   Time prior to 1st pass:      4.0


         Total DFT energy =     -935.295549062772
      One electron energy =    -1454.442752979267
           Coulomb energy =      496.281678134214
    Exchange-Corr. energy =      -59.457840597489
 Nuclear repulsion energy =       82.323366379770

 Numeric. integr. density =       37.999999985260

     Total iterative time =      0.1s



                  Occupations of the irreducible representations
                  ----------------------------------------------

                     irrep           alpha         beta
                     --------     --------     --------
                     a1                8.0          8.0
                     a2                2.0          2.0
                     b1                7.0          7.0
                     b2                2.0          2.0



                         DFT ENERGY GRADIENTS

    atom               coordinates                        gradient
                 x          y          z           x          y          z
   1 Be      0.000000   0.000000   0.524008    0.000000   0.000000   0.000177
   2 Cl      3.407287   0.000000   0.513330    0.000164   0.000000  -0.000089
   3 Cl     -3.407287   0.000000   0.513330   -0.000164   0.000000  -0.000089

  no constraints, skipping    0.0000000000000000     

  Step       Energy      Delta E   Gmax     Grms     Xrms     Xmax   Walltime
  ---- ---------------- -------- -------- -------- -------- -------- --------
@    5    -935.29554906 -4.0D-05  0.00016  0.00016  0.00892  0.01595      4.3
                                     ok       ok                    

  no constraints, skipping    0.0000000000000000     
  no constraints, skipping    0.0000000000000000     
  no constraints, skipping    0.0000000000000000     
  no constraints, skipping    0.0000000000000000     

                                 NWChem DFT Module
                                 -----------------


                   BeCl2 | Equilibrium Geometry | B3LYP/6-31G(d)



  Caching 1-el integrals 
   Time after variat. SCF:      4.3
   Time prior to 1st pass:      4.3


         Total DFT energy =     -935.295550132841
      One electron energy =    -1454.479507973724
           Coulomb energy =      496.299604084537
    Exchange-Corr. energy =      -59.457978252008
 Nuclear repulsion energy =       82.342332008354

 Numeric. integr. density =       37.999999988200

     Total iterative time =      0.1s



                  Occupations of the irreducible representations
                  ----------------------------------------------

                     irrep           alpha         beta
                     --------     --------     --------
                     a1                8.0          8.0
                     a2                2.0          2.0
                     b1                7.0          7.0
                     b2                2.0          2.0

 Line search: 
     step= 1.00 grad=-2.1D-06 hess= 1.0D-06 energy=   -935.295550 mode=accept  
 new step= 1.00                   predicted energy=   -935.295550
  no constraints, skipping    0.0000000000000000     
  no constraints, skipping    0.0000000000000000     
  no constraints, skipping    0.0000000000000000     
  no constraints, skipping    0.0000000000000000     

          --------
          Step   6
          --------

                                 NWChem DFT Module
                                 -----------------


                   BeCl2 | Equilibrium Geometry | B3LYP/6-31G(d)




  The DFT is already converged 

         Total DFT energy =   -935.295550132841



                         DFT ENERGY GRADIENTS

    atom               coordinates                        gradient
                 x          y          z           x          y          z
   1 Be      0.000000   0.000000   0.517163    0.000000   0.000000   0.000005
   2 Cl      3.406510   0.000000   0.516752   -0.000010   0.000000  -0.000002
   3 Cl     -3.406510   0.000000   0.516752    0.000010   0.000000  -0.000002

  no constraints, skipping    0.0000000000000000     

  Step       Energy      Delta E   Gmax     Grms     Xrms     Xmax   Walltime
  ---- ---------------- -------- -------- -------- -------- -------- --------
@    6    -935.29555013 -1.1D-06  0.00001  0.00001  0.00282  0.00684      4.6
                                     ok       ok                    

  no constraints, skipping    0.0000000000000000     
  no constraints, skipping    0.0000000000000000     
  no constraints, skipping    0.0000000000000000     

                                 NWChem DFT Module
                                 -----------------


                   BeCl2 | Equilibrium Geometry | B3LYP/6-31G(d)



  Caching 1-el integrals 
   Time after variat. SCF:      4.6
   Time prior to 1st pass:      4.6

 !! scf_movecs_sym_adapt:    4 vectors were symmetry contaminated

  Symmetry fudging


         Total DFT energy =     -935.295550146615
      One electron energy =    -1454.478199842456
           Coulomb energy =      496.299443661360
    Exchange-Corr. energy =      -59.458025625394
 Nuclear repulsion energy =       82.341231659875

 Numeric. integr. density =       37.999999988035

     Total iterative time =      0.1s



                  Occupations of the irreducible representations
                  ----------------------------------------------

                     irrep           alpha         beta
                     --------     --------     --------
                     a1                8.0          8.0
                     a2                2.0          2.0
                     b1                7.0          7.0
                     b2                2.0          2.0

 Line search: 
     step= 1.00 grad=-2.3D-09 hess=-1.2D-08 energy=   -935.295550 mode=accept  
 new step= 1.00                   predicted energy=   -935.295550
  no constraints, skipping    0.0000000000000000     
  no constraints, skipping    0.0000000000000000     
  no constraints, skipping    0.0000000000000000     

          --------
          Step   7
          --------

                                 NWChem DFT Module
                                 -----------------


                   BeCl2 | Equilibrium Geometry | B3LYP/6-31G(d)




  The DFT is already converged 

         Total DFT energy =   -935.295550146615



                         DFT ENERGY GRADIENTS

    atom               coordinates                        gradient
                 x          y          z           x          y          z
   1 Be      0.000000   0.000000   0.516969    0.000000   0.000000   0.000002
   2 Cl      3.406556   0.000000   0.516849    0.000001   0.000000  -0.000001
   3 Cl     -3.406556   0.000000   0.516849   -0.000001   0.000000  -0.000001

  no constraints, skipping    0.0000000000000000     

  Step       Energy      Delta E   Gmax     Grms     Xrms     Xmax   Walltime
  ---- ---------------- -------- -------- -------- -------- -------- --------
@    7    -935.29555015 -1.4D-08  0.00000  0.00000  0.00008  0.00019      4.8
                                     ok       ok       ok       ok  


      ----------------------
      Optimization converged
      ----------------------


  Step       Energy      Delta E   Gmax     Grms     Xrms     Xmax   Walltime
  ---- ---------------- -------- -------- -------- -------- -------- --------
@    7    -935.29555015 -1.4D-08  0.00000  0.00000  0.00008  0.00019      4.8
                                     ok       ok       ok       ok  



                         Geometry "geometry" -> "geometry"
                         ---------------------------------

 Output coordinates in angstroms (scale by  1.889725989 to convert to a.u.)

  No.       Tag          Charge          X              Y              Z
 ---- ---------------- ---------- -------------- -------------- --------------
    1 Be                   4.0000     0.00000000     0.00000000     0.27356843
    2 Cl                  17.0000     1.80267182     0.00000000     0.27350471
    3 Cl                  17.0000    -1.80267182     0.00000000     0.27350471

      Atomic Mass 
      ----------- 

      Be                 9.012180
      Cl                34.968850


 Effective nuclear repulsion energy (a.u.)      82.3412316599

            Nuclear Dipole moment (a.u.) 
            ----------------------------
        X                 Y               Z
 ---------------- ---------------- ----------------
     0.0000000000     0.0000000000    19.6407420301

      Symmetry information
      --------------------

 Group name             C2v       
 Group number             16
 Group order               4
 No. of unique centers     2

      Symmetry unique atoms

     1    2


                Final and change from initial internal coordinates
                --------------------------------------------------



                                Z-matrix (autoz)
                                -------- 

 Units are Angstrom for bonds and degrees for angles

      Type          Name      I     J     K     L     M      Value       Change
      ----------- --------  ----- ----- ----- ----- ----- ---------- ----------
    1 Stretch                  1     2                       1.80267   -0.27456
    2 Stretch                  1     3                       1.80267   -0.27456
    3 Bend                     2     1     3               179.99595   70.52594



                                NWChem Input Module
                                -------------------




                                     CITATION
                                     --------
                Please cite the following reference when publishing
                           results obtained with NWChem:

          E. Aprà, E. J. Bylaska, W. A. de Jong, N. Govind, K. Kowalski,
       T. P. Straatsma, M. Valiev, H. J. J. van Dam, Y. Alexeev, J. Anchell,
       V. Anisimov, F. W. Aquino, R. Atta-Fynn, J. Autschbach, N. P. Bauman,
     J. C. Becca, D. E. Bernholdt, K. Bhaskaran-Nair, S. Bogatko, P. Borowski,
        J. Boschen, J. Brabec, A. Bruner, E. Cauët, Y. Chen, G. N. Chuev,
      C. J. Cramer, J. Daily, M. J. O. Deegan, T. H. Dunning Jr., M. Dupuis,
   K. G. Dyall, G. I. Fann, S. A. Fischer, A. Fonari, H. Früchtl, L. Gagliardi,
      J. Garza, N. Gawande, S. Ghosh, K. Glaesemann, A. W. Götz, J. Hammond,
       V. Helms, E. D. Hermes, K. Hirao, S. Hirata, M. Jacquelin, L. Jensen,
   B. G. Johnson, H. Jónsson, R. A. Kendall, M. Klemm, R. Kobayashi, V. Konkov,
      S. Krishnamoorthy, M. Krishnan, Z. Lin, R. D. Lins, R. J. Littlefield,
      A. J. Logsdail, K. Lopata, W. Ma, A. V. Marenich, J. Martin del Campo,
   D. Mejia-Rodriguez, J. E. Moore, J. M. Mullin, T. Nakajima, D. R. Nascimento,
    J. A. Nichols, P. J. Nichols, J. Nieplocha, A. Otero-de-la-Roza, B. Palmer,
    A. Panyala, T. Pirojsirikul, B. Peng, R. Peverati, J. Pittner, L. Pollack,
   R. M. Richard, P. Sadayappan, G. C. Schatz, W. A. Shelton, D. W. Silverstein,
   D. M. A. Smith, T. A. Soares, D. Song, M. Swart, H. L. Taylor, G. S. Thomas,
            V. Tipparaju, D. G. Truhlar, K. Tsemekhman, T. Van Voorhis,
     Á. Vázquez-Mayagoitia, P. Verma, O. Villa, A. Vishnu, K. D. Vogiatzis,
        D. Wang, J. H. Weare, M. J. Williamson, T. L. Windus, K. Woliński,
        A. T. Wong, Q. Wu, C. Yang, Q. Yu, M. Zacharias, Z. Zhang, Y. Zhao,
                                and R. J. Harrison
                        "NWChem: Past, present, and future
                         J. Chem. Phys. 152, 184102 (2020)
                               doi:10.1063/5.0004997

                                      AUTHORS
                                      -------
     E. Apra, E. J. Bylaska, N. Govind, K. Kowalski, M. Valiev, W. A. de Jong,
      T. P. Straatsma, H. J. J. van Dam, D. Wang, T. L. Windus, N. P. Bauman,
       A. Panyala, J. Hammond, J. Autschbach, K. Bhaskaran-Nair, J. Brabec,
    K. Lopata, S. A. Fischer, S. Krishnamoorthy, M. Jacquelin, W. Ma, M. Klemm,
       O. Villa, Y. Chen, V. Anisimov, F. Aquino, S. Hirata, M. T. Hackler,
           Eric Hermes, L. Jensen, J. E. Moore, J. C. Becca, V. Konjkov,
            D. Mejia-Rodriguez, T. Risthaus, M. Malagoli, A. Marenich,
   A. Otero-de-la-Roza, J. Mullin, P. Nichols, R. Peverati, J. Pittner, Y. Zhao,
        P.-D. Fan, A. Fonari, M. J. Williamson, R. J. Harrison, J. R. Rehr,
      M. Dupuis, D. Silverstein, D. M. A. Smith, J. Nieplocha, V. Tipparaju,
      M. Krishnan, B. E. Van Kuiken, A. Vazquez-Mayagoitia, M. Swart, Q. Wu,
   T. Van Voorhis, A. A. Auer, M. Nooijen, L. D. Crosby, E. Brown, G. Cisneros,
     G. I. Fann, H. Fruchtl, J. Garza, K. Hirao, R. A. Kendall, J. A. Nichols,
       K. Tsemekhman, K. Wolinski, J. Anchell, D. E. Bernholdt, P. Borowski,
       T. Clark, D. Clerc, H. Dachsel, M. J. O. Deegan, K. Dyall, D. Elwood,
      E. Glendening, M. Gutowski, A. C. Hess, J. Jaffe, B. G. Johnson, J. Ju,
        R. Kobayashi, R. Kutteh, Z. Lin, R. Littlefield, X. Long, B. Meng,
      T. Nakajima, S. Niu, L. Pollack, M. Rosing, K. Glaesemann, G. Sandrone,
      M. Stave, H. Taylor, G. Thomas, J. H. van Lenthe, A. T. Wong, Z. Zhang.

 Total times  cpu:        3.3s     wall:        4.8s
