 argument  1 = HF.b3lyp_daug-cc-pVDZ_prop.nw



============================== echo of input deck ==============================
echo

start molecule

title "HF properties"
charge 0

print low

geometry units angstroms print xyz autosym
F     -7.495632    1.264070   -0.005417
H     -8.290988    1.365470   -0.494508
end

basis
  * library d-aug-cc-pvdz
end

dft
  xc b3lyp
  mult 1
end

property
  dipole
  response
end

task dft optimize
task dft freq
task dft property
================================================================================


                                         
                                         


             Northwest Computational Chemistry Package (NWChem) 7.2.2
             --------------------------------------------------------


                    Environmental Molecular Sciences Laboratory
                       Pacific Northwest National Laboratory
                                Richland, WA 99352

                              Copyright (c) 1994-2022
                       Pacific Northwest National Laboratory
                            Battelle Memorial Institute

             NWChem is an open-source computational chemistry package
                        distributed under the terms of the
                      Educational Community License (ECL) 2.0
             A copy of the license is included with this distribution
                              in the LICENSE.TXT file

                                  ACKNOWLEDGMENT
                                  --------------

            This software and its documentation were developed at the
            EMSL at Pacific Northwest National Laboratory, a multiprogram
            national laboratory, operated for the U.S. Department of Energy
            by Battelle under Contract Number DE-AC05-76RL01830. Support
            for this work was provided by the Department of Energy Office
            of Biological and Environmental Research, Office of Basic
            Energy Sciences, and the Office of Advanced Scientific Computing.


           Job information
           ---------------

    hostname        = DESKTOP-7OTLCGO
    program         = nwchem
    date            = Thu Feb 19 16:22:57 2026

    compiled        = Mon_Apr_01_11:12:32_2024
    source          = /build/nwchem-qbYJLs/nwchem-7.2.2/build-openmpi
    nwchem branch   = 7.2.2
    nwchem revision = N/A
    ga revision     = N/A
    use scalapack   = T
    input           = HF.b3lyp_daug-cc-pVDZ_prop.nw
    prefix          = molecule.
    data base       = ./molecule.db
    status          = startup
    nproc           =        8
    time left       =     -1s



           Memory information
           ------------------

    heap     =   26214400 doubles =    200.0 Mbytes
    stack    =   26214397 doubles =    200.0 Mbytes
    global   =   52428800 doubles =    400.0 Mbytes (distinct from heap & stack)
    total    =  104857597 doubles =    800.0 Mbytes
    verify   = yes
    hardfail = no 


           Directory information
           ---------------------

  0 permanent = .
  0 scratch   = .




                                NWChem Input Module
                                -------------------


                                   HF properties
                                   -------------

 Scaling coordinates for geometry "geometry" by  1.889725989
 (inverse scale =  0.529177249)


          ------
          auto-z
          ------
  no constraints, skipping    0.0000000000000000     
  no constraints, skipping    0.0000000000000000     


                             Geometry "geometry" -> ""
                             -------------------------

 Output coordinates in angstroms (scale by  1.889725989 to convert to a.u.)

  No.       Tag          Charge          X              Y              Z
 ---- ---------------- ---------- -------------- -------------- --------------
    1 F                    9.0000     0.00000000     0.00000000     0.09391928
    2 H                    1.0000     0.00000000     0.00000000    -0.84527353

      Atomic Mass 
      ----------- 

      F                 18.998400
      H                  1.007825


 Effective nuclear repulsion energy (a.u.)       5.0709451711

            Nuclear Dipole moment (a.u.) 
            ----------------------------
        X                 Y               Z
 ---------------- ---------------- ----------------
     0.0000000000     0.0000000000     0.0000000000

      Symmetry information
      --------------------

 Group name             C4v       
 Group number             18
 Group order               8
 No. of unique centers     2

      Symmetry unique atoms

     1    2



                                Z-matrix (autoz)
                                -------- 

 Units are Angstrom for bonds and degrees for angles

      Type          Name      I     J     K     L     M      Value
      ----------- --------  ----- ----- ----- ----- ----- ----------
    1 Stretch                  1     2                       0.93919


            XYZ format geometry
            -------------------
     2
 geometry
 F                     0.00000000     0.00000000     0.09391928
 H                     0.00000000     0.00000000    -0.84527353

 ==============================================================================
                                internuclear distances
 ------------------------------------------------------------------------------
       center one      |      center two      | atomic units |  angstroms
 ------------------------------------------------------------------------------
    2 H                |   1 F                |     1.77482  |     0.93919
 ------------------------------------------------------------------------------
                         number of included internuclear distances:          1
 ==============================================================================





 Summary of "ao basis" -> "" (cartesian)
 ------------------------------------------------------------------------------
       Tag                 Description            Shells   Functions and Types
 ---------------- ------------------------------  ------  ---------------------
 *                       d-aug-cc-pvdz                on all atoms 




                           NWChem Geometry Optimization
                           ----------------------------




                                   HF properties


  no constraints, skipping    0.0000000000000000     
 maximum gradient threshold         (gmax) =   0.000450
 rms gradient threshold             (grms) =   0.000300
 maximum cartesian step threshold   (xmax) =   0.001800
 rms cartesian step threshold       (xrms) =   0.001200
 fixed trust radius                (trust) =   0.300000
 maximum step size to saddle      (sadstp) =   0.100000
 energy precision                  (eprec) =   5.0D-06
 maximum number of steps          (nptopt) =   40
 initial hessian option           (inhess) =    0
 line search option               (linopt) =    1
 hessian update option            (modupd) =    1
 saddle point option              (modsad) =    0
 initial eigen-mode to follow     (moddir) =    0
 initial variable to follow       (vardir) =    0
 follow first negative mode     (firstneg) =    T
 apply conjugacy                    (opcg) =    F
 source of zmatrix                         =   autoz   


          -------------------
          Energy Minimization
          -------------------


 Names of Z-matrix variables 
    1         

 Variables with the same non-blank name are constrained to be equal


 Using old Hessian from previous optimization

          --------
          Step   0
          --------

                                 NWChem DFT Module
                                 -----------------


                                   HF properties


                      Basis "ao basis" -> "ao basis" (cartesian)
                      -----
  F (Fluorine)
  ------------
            Exponent  Coefficients 
       -------------- ---------------------------------------------------------
  1 S  1.47100000E+04  0.000721
  1 S  2.20700000E+03  0.005553
  1 S  5.02800000E+02  0.028267
  1 S  1.42600000E+02  0.106444
  1 S  4.64700000E+01  0.286814
  1 S  1.67000000E+01  0.448641
  1 S  6.35600000E+00  0.264761
  1 S  1.31600000E+00  0.015333

  2 S  1.47100000E+04 -0.000165
  2 S  2.20700000E+03 -0.001308
  2 S  5.02800000E+02 -0.006495
  2 S  1.42600000E+02 -0.026691
  2 S  4.64700000E+01 -0.073690
  2 S  1.67000000E+01 -0.170776
  2 S  6.35600000E+00 -0.112327
  2 S  1.31600000E+00  0.562814

  3 S  3.89700000E-01  1.000000

  4 S  9.86300000E-02  1.000000

  5 S  2.50000000E-02  1.000000

  6 P  2.26700000E+01  0.044878
  6 P  4.97700000E+00  0.235718
  6 P  1.34700000E+00  0.508521

  7 P  3.47100000E-01  1.000000

  8 P  8.50200000E-02  1.000000

  9 P  2.08000000E-02  1.000000

 10 D  1.64000000E+00  1.000000

 11 D  4.64000000E-01  1.000000

 12 D  1.31000000E-01  1.000000

  H (Hydrogen)
  ------------
            Exponent  Coefficients 
       -------------- ---------------------------------------------------------
  1 S  1.30100000E+01  0.019685
  1 S  1.96200000E+00  0.137977
  1 S  4.44600000E-01  0.478148

  2 S  1.22000000E-01  1.000000

  3 S  2.97400000E-02  1.000000

  4 S  7.25000000E-03  1.000000

  5 P  7.27000000E-01  1.000000

  6 P  1.41000000E-01  1.000000

  7 P  2.73000000E-02  1.000000



 Summary of "ao basis" -> "ao basis" (cartesian)
 ------------------------------------------------------------------------------
       Tag                 Description            Shells   Functions and Types
 ---------------- ------------------------------  ------  ---------------------
 F                       d-aug-cc-pvdz              12       35   5s4p3d
 H                       d-aug-cc-pvdz               7       13   4s3p



  Caching 1-el integrals 

 !! scf_movecs_sym_adapt:    6 vectors were symmetry contaminated

  Symmetry fudging

 !! scf_movecs_sym_adapt:    6 vectors were symmetry contaminated

  WARNING: movecs_in_org=atomic not equal to movecs_in=./molecule.movecs
   Time after variat. SCF:      0.1
   Time prior to 1st pass:      0.1

           Memory utilization after 1st SCF pass: 
           Heap Space remaining (MW):       25.98            25978224
          Stack Space remaining (MW):       26.21            26214020

   convergence    iter        energy       DeltaE   RMS-Dens  Diis-err    time
 ---------------- ----- ----------------- --------- --------- ---------  ------
 d= 0,ls=0.0,diis     1   -100.4288143325 -1.05D+02  2.13D-02  3.91D-01     0.5
 d= 0,ls=0.0,diis     2   -100.4139074529  1.49D-02  7.96D-03  6.27D-01     0.8
 d= 0,ls=0.0,diis     3   -100.4617305820 -4.78D-02  1.03D-03  1.53D-02     1.0
 d= 0,ls=0.0,diis     4   -100.4628115998 -1.08D-03  2.12D-04  2.54D-04     1.2
 d= 0,ls=0.0,diis     5   -100.4628310091 -1.94D-05  8.15D-06  2.70D-07     1.4
 d= 0,ls=0.0,diis     6   -100.4628310398 -3.07D-08  1.45D-06  9.70D-09     1.6


         Total DFT energy =     -100.462831039810
      One electron energy =     -150.165285185355
           Coulomb energy =       55.434541204408
    Exchange-Corr. energy =      -10.803032229974
 Nuclear repulsion energy =        5.070945171111

 Numeric. integr. density =       10.000006144004

     Total iterative time =      1.5s



                  Occupations of the irreducible representations
                  ----------------------------------------------

                     irrep           alpha         beta
                     --------     --------     --------
                     a1                3.0          3.0
                     a2                0.0          0.0
                     b1                0.0          0.0
                     b2                0.0          0.0
                     e                 2.0          2.0



                         DFT ENERGY GRADIENTS

    atom               coordinates                        gradient
                 x          y          z           x          y          z
   1 F       0.000000   0.000000   0.177482    0.000000   0.000000   0.015260
   2 H       0.000000   0.000000  -1.597335    0.000000   0.000000  -0.015260

  no constraints, skipping    0.0000000000000000     

@ Step       Energy      Delta E   Gmax     Grms     Xrms     Xmax   Walltime
@ ---- ---------------- -------- -------- -------- -------- -------- --------
@    0    -100.46283104  0.0D+00  0.01526  0.01526  0.00000  0.00000      2.0
                                                                    

  no constraints, skipping    0.0000000000000000     
  no constraints, skipping    0.0000000000000000     
  no constraints, skipping    0.0000000000000000     

                                 NWChem DFT Module
                                 -----------------


                                   HF properties



  Caching 1-el integrals 
   Time after variat. SCF:      2.0
   Time prior to 1st pass:      2.0

           Memory utilization after 1st SCF pass: 
           Heap Space remaining (MW):       25.98            25978224
          Stack Space remaining (MW):       26.21            26214020

   convergence    iter        energy       DeltaE   RMS-Dens  Diis-err    time
 ---------------- ----- ----------------- --------- --------- ---------  ------
 d= 0,ls=0.0,diis     1   -100.4629537478 -1.06D+02  1.10D-03  9.27D-04     2.2
 d= 0,ls=0.0,diis     2   -100.4630345833 -8.08D-05  1.02D-04  3.72D-05     2.4
 d= 0,ls=0.0,diis     3   -100.4630359607 -1.38D-06  4.52D-05  2.18D-05     2.5
 d= 0,ls=0.0,diis     4   -100.4630373275 -1.37D-06  1.64D-05  2.65D-06     2.6
 d= 0,ls=0.0,diis     5   -100.4630375326 -2.05D-07  6.75D-07  1.21D-09     2.8


         Total DFT energy =     -100.463037532641
      One electron energy =     -150.293317605658
           Coulomb energy =       55.494002311619
    Exchange-Corr. energy =      -10.809987682717
 Nuclear repulsion energy =        5.146265444115

 Numeric. integr. density =       10.000002531738

     Total iterative time =      0.7s



                  Occupations of the irreducible representations
                  ----------------------------------------------

                     irrep           alpha         beta
                     --------     --------     --------
                     a1                3.0          3.0
                     a2                0.0          0.0
                     b1                0.0          0.0
                     b2                0.0          0.0
                     e                 2.0          2.0

 Line search: 
     step= 1.00 grad=-4.0D-04 hess= 1.9D-04 energy=   -100.463038 mode=accept  
 new step= 1.00                   predicted energy=   -100.463038
  no constraints, skipping    0.0000000000000000     
  no constraints, skipping    0.0000000000000000     
  no constraints, skipping    0.0000000000000000     

          --------
          Step   1
          --------

                                 NWChem DFT Module
                                 -----------------


                                   HF properties




  The DFT is already converged 

         Total DFT energy =   -100.463037532641



                         DFT ENERGY GRADIENTS

    atom               coordinates                        gradient
                 x          y          z           x          y          z
   1 F       0.000000   0.000000   0.164494    0.000000   0.000000   0.000393
   2 H       0.000000   0.000000  -1.584347    0.000000   0.000000  -0.000393

  no constraints, skipping    0.0000000000000000     

  Step       Energy      Delta E   Gmax     Grms     Xrms     Xmax   Walltime
  ---- ---------------- -------- -------- -------- -------- -------- --------
@    1    -100.46303753 -2.1D-04  0.00039  0.00039  0.00750  0.01299      2.9
                                     ok                             

  no constraints, skipping    0.0000000000000000     
  no constraints, skipping    0.0000000000000000     
  no constraints, skipping    0.0000000000000000     

                                 NWChem DFT Module
                                 -----------------


                                   HF properties



  Caching 1-el integrals 
   Time after variat. SCF:      3.0
   Time prior to 1st pass:      3.0

           Memory utilization after 1st SCF pass: 
           Heap Space remaining (MW):       25.98            25978848
          Stack Space remaining (MW):       26.21            26214020

   convergence    iter        energy       DeltaE   RMS-Dens  Diis-err    time
 ---------------- ----- ----------------- --------- --------- ---------  ------
 d= 0,ls=0.0,diis     1   -100.4630376008 -1.06D+02  2.97D-05  6.64D-07     3.3
 d= 0,ls=0.0,diis     2   -100.4630376589 -5.81D-08  2.61D-06  2.38D-08     3.6


         Total DFT energy =     -100.463037658877
      One electron energy =     -150.296978752643
           Coulomb energy =       55.495866105321
    Exchange-Corr. energy =      -10.810211181932
 Nuclear repulsion energy =        5.148286170377

 Numeric. integr. density =       10.000002418054

     Total iterative time =      0.6s



                  Occupations of the irreducible representations
                  ----------------------------------------------

                     irrep           alpha         beta
                     --------     --------     --------
                     a1                3.0          3.0
                     a2                0.0          0.0
                     b1                0.0          0.0
                     b2                0.0          0.0
                     e                 2.0          2.0

 Line search: 
     step= 1.00 grad=-2.7D-07 hess= 1.4D-07 energy=   -100.463038 mode=accept  
 new step= 1.00                   predicted energy=   -100.463038
  no constraints, skipping    0.0000000000000000     
  no constraints, skipping    0.0000000000000000     
  no constraints, skipping    0.0000000000000000     

          --------
          Step   2
          --------

                                 NWChem DFT Module
                                 -----------------


                                   HF properties




  The DFT is already converged 

         Total DFT energy =   -100.463037658877



                         DFT ENERGY GRADIENTS

    atom               coordinates                        gradient
                 x          y          z           x          y          z
   1 F       0.000000   0.000000   0.164150    0.000000   0.000000  -0.000009
   2 H       0.000000   0.000000  -1.584004    0.000000   0.000000   0.000009

  no constraints, skipping    0.0000000000000000     

  Step       Energy      Delta E   Gmax     Grms     Xrms     Xmax   Walltime
  ---- ---------------- -------- -------- -------- -------- -------- --------
@    2    -100.46303766 -1.3D-07  0.00001  0.00001  0.00020  0.00034      3.8
                                     ok       ok       ok       ok  


      ----------------------
      Optimization converged
      ----------------------


  Step       Energy      Delta E   Gmax     Grms     Xrms     Xmax   Walltime
  ---- ---------------- -------- -------- -------- -------- -------- --------
@    2    -100.46303766 -1.3D-07  0.00001  0.00001  0.00020  0.00034      3.8
                                     ok       ok       ok       ok  



                         Geometry "geometry" -> "geometry"
                         ---------------------------------

 Output coordinates in angstroms (scale by  1.889725989 to convert to a.u.)

  No.       Tag          Charge          X              Y              Z
 ---- ---------------- ---------- -------------- -------------- --------------
    1 F                    9.0000     0.00000000     0.00000000     0.08686469
    2 H                    1.0000     0.00000000     0.00000000    -0.83821894

      Atomic Mass 
      ----------- 

      F                 18.998400
      H                  1.007825


 Effective nuclear repulsion energy (a.u.)       5.1482861704

            Nuclear Dipole moment (a.u.) 
            ----------------------------
        X                 Y               Z
 ---------------- ---------------- ----------------
     0.0000000000     0.0000000000    -0.1066499572

      Symmetry information
      --------------------

 Group name             C4v       
 Group number             18
 Group order               8
 No. of unique centers     2

      Symmetry unique atoms

     1    2


                Final and change from initial internal coordinates
                --------------------------------------------------



                                Z-matrix (autoz)
                                -------- 

 Units are Angstrom for bonds and degrees for angles

      Type          Name      I     J     K     L     M      Value       Change
      ----------- --------  ----- ----- ----- ----- ----- ---------- ----------
    1 Stretch                  1     2                       0.92508   -0.01411



                                NWChem Input Module
                                -------------------




                   NWChem Nuclear Hessian and Frequency Analysis
                   ---------------------------------------------



                              NWChem Analytic Hessian
                              -----------------------


                                 NWChem DFT Module
                                 -----------------


                                   HF properties



  Caching 1-el integrals 
   Time after variat. SCF:      3.8
   Time prior to 1st pass:      3.8

           Memory utilization after 1st SCF pass: 
           Heap Space remaining (MW):       25.82            25821832
          Stack Space remaining (MW):       26.21            26214020

   convergence    iter        energy       DeltaE   RMS-Dens  Diis-err    time
 ---------------- ----- ----------------- --------- --------- ---------  ------
 d= 0,ls=0.0,diis     1   -100.4630372061 -1.06D+02  7.95D-06  1.21D-08     4.2
 d= 0,ls=0.0,diis     2   -100.4630372053  8.01D-10  1.24D-06  2.36D-08     4.8


         Total DFT energy =     -100.463037205312
      One electron energy =     -150.297097115292
           Coulomb energy =       55.495998466452
    Exchange-Corr. energy =      -10.810224726849
 Nuclear repulsion energy =        5.148286170377

 Numeric. integr. density =        9.999999925936

     Total iterative time =      1.0s


  stpr_wrt_fd_from_sq: overwrite of existing file:./molecule.hess
 stpr_wrt_fd_dipole: overwrite of existing file./molecule.fd_ddipole

 HESSIAN: the one electron contributions are done in       0.0s


 HESSIAN: 2-el 1st deriv. term done in                     0.1s


 HESSIAN: 2-el 2nd deriv. term done in                     0.1s

  stpr_wrt_fd_from_sq: overwrite of existing file:./molecule.hess
 stpr_wrt_fd_dipole: overwrite of existing file./molecule.fd_ddipole

 HESSIAN: the two electron contributions are done in       4.0s

 SCF residual:    1.4355308905072324E-005
 HESSIAN: the CPHF contributions are done
  stpr_wrt_fd_from_sq: overwrite of existing file:./molecule.hess
 stpr_wrt_fd_dipole: overwrite of existing file./molecule.fd_ddipole

 Derivative Dipole

  
  
 X vector of derivative dipole (au) [debye/angstrom]
 d_dipole_x/<atom=   1,x> =    -0.4062     [   -1.9509]
 d_dipole_x/<atom=   1,y> =    -0.0000     [   -0.0000]
 d_dipole_x/<atom=   1,z> =    -0.0000     [   -0.0000]
 d_dipole_x/<atom=   2,x> =     0.4061     [    1.9507]
 d_dipole_x/<atom=   2,y> =     0.0000     [    0.0000]
 d_dipole_x/<atom=   2,z> =     0.0000     [    0.0000]
  
 Y vector of derivative dipole (au) [debye/angstrom]
 d_dipole_y/<atom=   1,x> =     0.0000     [    0.0000]
 d_dipole_y/<atom=   1,y> =    -0.4062     [   -1.9509]
 d_dipole_y/<atom=   1,z> =     0.0000     [    0.0000]
 d_dipole_y/<atom=   2,x> =    -0.0000     [   -0.0000]
 d_dipole_y/<atom=   2,y> =     0.4061     [    1.9507]
 d_dipole_y/<atom=   2,z> =    -0.0000     [   -0.0000]
  
 Z vector of derivative dipole (au) [debye/angstrom]
 d_dipole_z/<atom=   1,x> =     0.0000     [    0.0000]
 d_dipole_z/<atom=   1,y> =    -0.0000     [   -0.0000]
 d_dipole_z/<atom=   1,z> =    -0.3299     [   -1.5847]
 d_dipole_z/<atom=   2,x> =    -0.0000     [   -0.0000]
 d_dipole_z/<atom=   2,y> =     0.0000     [    0.0000]
 d_dipole_z/<atom=   2,z> =     0.3299     [    1.5847]
  
  
 HESSIAN: the Hessian is done


  Vibrational analysis via the FX method 

  See chapter 2 in "Molecular Vibrations" by Wilson, Decius and Cross

  Vib: Default input used 

  Nuclear Hessian passed symmetry test 



 ---------------------------- Atom information ----------------------------
     atom    #        X              Y              Z            mass
 --------------------------------------------------------------------------
    F        1  0.0000000D+00  0.0000000D+00  1.6415046D-01  1.8998400D+01
    H        2  0.0000000D+00  0.0000000D+00 -1.5840041D+00  1.0078250D+00
 --------------------------------------------------------------------------




          ----------------------------------------------------
          MASS-WEIGHTED NUCLEAR HESSIAN (Hartree/Bohr/Bohr/Kamu)
          ----------------------------------------------------


               1            2            3            4            5            6
   ----- ----- ----- ----- -----
    1   -1.09163D+00
    2   -2.25641D-12 -1.09163D+00
    3    7.81373D-12 -3.21327D-11  3.05845D+01
    4   -1.29500D-02 -5.76803D-15 -5.45442D-12  5.68089D-02
    5    7.19597D-14 -1.29500D-02  5.11697D-12 -9.72077D-14  5.68089D-02
    6   -7.89581D-12  2.64648D-11 -1.37542D+02  3.42491D-11 -6.30622D-11  5.97173D+02



          -------------------------------------------------
          NORMAL MODE EIGENVECTORS IN CARTESIAN COORDINATES
          -------------------------------------------------
                 (Frequencies expressed in cm-1)

                    1           2           3           4           5           6
 
 Frequency       -169.85     -169.85     -165.71       38.79       38.79     4076.24
 
           1     0.22941     0.00000     0.00000    -0.00259     0.00000     0.00000
           2     0.00000    -0.22941     0.00000     0.00000    -0.00259     0.00000
           3     0.00000    -0.00000    -0.22359     0.00000     0.00000     0.05141
           4     0.01123     0.00000     0.00000     0.99605     0.00000     0.00000
           5     0.00000    -0.01123     0.00000     0.00000     0.99605     0.00000
           6     0.00000    -0.00000    -0.22320     0.00000     0.00000    -0.97078
  
  
 ----------------------------------------------------------------------------
 Normal Eigenvalue ||                 Infra Red Intensities
  Mode   [cm**-1]  || [atomic units] [(debye/angs)**2] [(KM/mol)] [arbitrary]
 ------ ---------- || -------------- ----------------- ---------- -----------
    1     -169.852 ||    0.007853           0.181         7.655       1.028
    2     -169.852 ||    0.007853           0.181         7.655       1.028
    3     -165.714 ||    0.000000           0.000         0.000       0.000
    4       38.794 ||    0.164493           3.795       160.356      21.530
    5       38.794 ||    0.164493           3.795       160.356      21.530
    6     4076.236 ||    0.113729           2.624       110.869      14.885
 ----------------------------------------------------------------------------





        Vibrational analysis via the FX method 
  --- with translations and rotations projected out ---
  --- via the Eckart algorithm                      ---
 Dependent rotation vector no.                    3
  found in ECKART; assuming linear geometry

          --------------------------------------------------------
          MASS-WEIGHTED PROJECTED HESSIAN (Hartree/Bohr/Bohr/Kamu)
          --------------------------------------------------------


               1            2            3            4            5            6
   ----- ----- ----- ----- -----
    1    0.00000D+00
    2   -3.32180D-28  0.00000D+00
    3    1.32872D-27  5.31488D-27  3.14052D+01
    4    1.54860D-18 -7.04222D-31  5.22814D-27  0.00000D+00
    5    0.00000D+00 -1.54860D-18  2.88449D-27  0.00000D+00  0.00000D+00
    6   -2.88449D-27 -3.46139D-26 -1.36354D+02 -1.87857D-26 -1.25238D-26  5.92016D+02

 center of mass
 --------------
 x =   0.00000000 y =   0.00000000 z =   0.07608618

 moments of inertia (a.u.)
 ------------------
           2.924803311310           0.000000000000           0.000000000000
           0.000000000000           2.924803311310           0.000000000000
           0.000000000000           0.000000000000           0.000000000000

 Rotational Constants
 --------------------
 A=   0.000000 cm-1  (  0.000000 K)
 B=  20.582641 cm-1  ( 29.613167 K)
 C=  20.582641 cm-1  ( 29.613167 K)


 Temperature                      =   298.15K
 frequency scaling parameter      =   1.0000


 Linear Molecule                   

 Zero-Point correction to Energy  =    5.800 kcal/mol  (  0.009242 au)
 Thermal correction to Energy     =    7.280 kcal/mol  (  0.011602 au)
 Thermal correction to Enthalpy   =    7.872 kcal/mol  (  0.012545 au)

 Total Entropy                    =   41.479 cal/mol-K
   - Translational                =   34.906 cal/mol-K (mol. weight =  20.0062)
   - Rotational                   =    6.574 cal/mol-K (symmetry #  =        1)
   - Vibrational                  =    0.000 cal/mol-K

 Cv (constant volume heat capacity) =    4.966 cal/mol-K
   - Translational                  =    2.979 cal/mol-K
   - Rotational                     =    1.986 cal/mol-K
   - Vibrational                    =    0.000 cal/mol-K



          -------------------------------------------------
          NORMAL MODE EIGENVECTORS IN CARTESIAN COORDINATES
          -------------------------------------------------
             (Projected Frequencies expressed in cm-1)

                    1           2           3           4           5           6
 
 P.Frequency       -0.00       -0.00       -0.00        0.00        0.00     4058.78
 
           1     0.00000     0.16223     0.00000     0.00000     0.16223     0.00000
           2     0.00000     0.00000     0.16223     0.16223     0.00000     0.00000
           3    -0.22357     0.00000     0.00000     0.00000     0.00000     0.05149
           4     0.00000    -0.70436     0.00000     0.00000     0.70436     0.00000
           5     0.00000     0.00000     0.70436    -0.70436     0.00000     0.00000
           6    -0.22357     0.00000     0.00000     0.00000     0.00000    -0.97070
  
  
 ----------------------------------------------------------------------------
 Normal Eigenvalue ||           Projected Infra Red Intensities
  Mode   [cm**-1]  || [atomic units] [(debye/angs)**2] [(KM/mol)] [arbitrary]
 ------ ---------- || -------------- ----------------- ---------- -----------
    1       -0.000 ||    0.000000           0.000         0.000       0.000
    2       -0.000 ||    0.123871           2.858       120.755      16.213
    3       -0.000 ||    0.048475           1.118        47.256       6.345
    4        0.000 ||    0.123871           2.858       120.755      16.213
    5        0.000 ||    0.048475           1.118        47.256       6.345
    6     4058.776 ||    0.113729           2.624       110.869      14.885
 ----------------------------------------------------------------------------



 vib:animation  F


                                NWChem Input Module
                                -------------------


                              NWChem Property Module
                              ----------------------


                                 NWChem DFT Module
                                 -----------------


                                   HF properties



  Caching 1-el integrals 
   Time after variat. SCF:     19.7
   Time prior to 1st pass:     19.7

           Memory utilization after 1st SCF pass: 
           Heap Space remaining (MW):       25.82            25821832
          Stack Space remaining (MW):       26.21            26214020

   convergence    iter        energy       DeltaE   RMS-Dens  Diis-err    time
 ---------------- ----- ----------------- --------- --------- ---------  ------
 d= 0,ls=0.0,diis     1   -100.4630372070 -1.06D+02  2.90D-07  1.03D-10    20.3
 d= 0,ls=0.0,diis     2   -100.4630372070  2.87D-12  1.19D-07  1.41D-10    20.7


         Total DFT energy =     -100.463037207026
      One electron energy =     -150.296777780136
           Coulomb energy =       55.495633241578
    Exchange-Corr. energy =      -10.810178838846
 Nuclear repulsion energy =        5.148286170377

 Numeric. integr. density =        9.999999925938

     Total iterative time =      1.0s


 *** CALLING NEW AORESP DRIVER FOR CLOSED AND OPEN SHELLS ***
 Entering AOResponse driver routine


--------------------------------------------------------------------------------

          ****************
          *** RESPONSE ***
          ****************

 Response module for NWChem and dynamic CPKS solver
 developed by J. Autschbach and coworkers, SUNY Buffalo
 The methodology used in this program is described in 
 ChemPhysChem 12 (2011), 3224-3235 (main reference)
 J. Chem. Phys. 123 (2005), 114103
 J. Chem. Phys. 122 (2005), 224115
 J. Chem. Phys. 122 (2005), 074105
 Comp. Lett. 3 (2007), 131-150 (contact JA for a copy)
 Please cite this work in publications based on results
 obtained with this code. Thank you!

 For extension of response module to open shell
 calculations please acknowledge:
 F. Aquino, Northwestern University, Schatz Rsrch Group
 The update to the methodology is described in
 J. Phys. Chem. A 118 (2014) 517-525



          -----------------------------------------------
          Solving response equations for perturbing field
          -----------------------------------------------

 number of frequencies:     1
 frequency in a.u.:  0.0000000E+00
 Perturbing field: electric
 Using El. Dipole Length Gauge

 Setting up CPKS with frequency omega =      0.00000000 a.u.

 STATIC response

 SCF residual:    3.0536654979378143E-006

 Electric Dipole Response Matrix (nonzero elements):

              1        2        3      
    1    5.5236   0.0000   0.0000
    2   -0.0000   5.5236  -0.0000
    3   -0.0000  -0.0000   6.6780

 ------------------------------------------
 average:         5.90839 + I       0.00000


 DFT Linear Response polarizability / au 
 Frequency  =       0.0000000 / au
 Wavelength = -999999.0000000 / nm
              X              Y              Z
 -----------------------------------------------
 X       5.5235645      0.0000000      0.0000000
 Y      -0.0000000      5.5235645     -0.0000000
 Z      -0.0000000     -0.0000000      6.6780371
 -----------------------------------------------
 Eigenvalues =       5.5235645      5.5235645      6.6780371
 Isotropic   =       5.9083887
 Anisotropic =       1.1544726
 -----------------------------------------------

 Magnetic Dipole Response Matrix (nonzero elements):
 Optical rotation tensor Beta

 *** static G'=0. Use GPRIME input with finite omega
 *** or better ORBETA without GPRIME for small or zero freq.


 zero matrix


 ------------------------------------------
 average:         0.00000 + I       0.00000

 Exiting AOResponse driver routine

          -------------
          Dipole Moment
          -------------

 Center of charge (in au) is the expansion point
         X =       0.0000000 Y =       0.0000000 Z =      -0.0106650

   Dipole moment        0.7099639891 A.U.
             DMX       -0.0000000000 DMXEFC        0.0000000000
             DMY        0.0000000000 DMYEFC        0.0000000000
             DMZ       -0.7099639891 DMZEFC        0.0000000000
   -EFC- dipole         0.0000000000 A.U.
   Total dipole         0.7099639891 A.U.

   Dipole moment        1.8045621015 Debye(s)
             DMX       -0.0000000000 DMXEFC        0.0000000000
             DMY        0.0000000000 DMYEFC        0.0000000000
             DMZ       -1.8045621015 DMZEFC        0.0000000000
   -EFC- dipole         0.0000000000 DEBYE(S)
   Total dipole         1.8045621015 DEBYE(S)

 1 a.u. = 2.541766 Debyes 


                                NWChem Input Module
                                -------------------




                                     CITATION
                                     --------
                Please cite the following reference when publishing
                           results obtained with NWChem:

          E. Apra, E. J. Bylaska, W. A. de Jong, N. Govind, K. Kowalski,
       T. P. Straatsma, M. Valiev, H. J. J. van Dam, Y. Alexeev, J. Anchell,
       V. Anisimov, F. W. Aquino, R. Atta-Fynn, J. Autschbach, N. P. Bauman,
     J. C. Becca, D. E. Bernholdt, K. Bhaskaran-Nair, S. Bogatko, P. Borowski,
         J. Boschen, J. Brabec, A. Bruner, E. Cauet, Y. Chen, G. N. Chuev,
      C. J. Cramer, J. Daily, M. J. O. Deegan, T. H. Dunning Jr., M. Dupuis,
   K. G. Dyall, G. I. Fann, S. A. Fischer, A. Fonari, H. Fruchtl, L. Gagliardi,
      J. Garza, N. Gawande, S. Ghosh, K. Glaesemann, A. W. Gotz, J. Hammond,
       V. Helms, E. D. Hermes, K. Hirao, S. Hirata, M. Jacquelin, L. Jensen,
   B. G. Johnson, H. Jonsson, R. A. Kendall, M. Klemm, R. Kobayashi, V. Konkov,
      S. Krishnamoorthy, M. Krishnan, Z. Lin, R. D. Lins, R. J. Littlefield,
      A. J. Logsdail, K. Lopata, W. Ma, A. V. Marenich, J. Martin del Campo,
   D. Mejia-Rodriguez, J. E. Moore, J. M. Mullin, T. Nakajima, D. R. Nascimento,
    J. A. Nichols, P. J. Nichols, J. Nieplocha, A. Otero-de-la-Roza, B. Palmer,
    A. Panyala, T. Pirojsirikul, B. Peng, R. Peverati, J. Pittner, L. Pollack,
   R. M. Richard, P. Sadayappan, G. C. Schatz, W. A. Shelton, D. W. Silverstein,
   D. M. A. Smith, T. A. Soares, D. Song, M. Swart, H. L. Taylor, G. S. Thomas,
            V. Tipparaju, D. G. Truhlar, K. Tsemekhman, T. Van Voorhis,
      A. Vazquez-Mayagoitia, P. Verma, O. Villa, A. Vishnu, K. D. Vogiatzis,
        D. Wang, J. H. Weare, M. J. Williamson, T. L. Windus, K. Wolinski,
        A. T. Wong, Q. Wu, C. Yang, Q. Yu, M. Zacharias, Z. Zhang, Y. Zhao,
                                and R. J. Harrison
                        "NWChem: Past, present, and future
                         J. Chem. Phys. 152, 184102 (2020)
                               doi:10.1063/5.0004997

                                      AUTHORS
                                      -------
  E. Apra, E. J. Bylaska, N. Govind, K. Kowalski, M. Valiev, D. Mejia-Rodriguez,
       A. Kunitsa, N. P. Bauman, A. Panyala, W. A. de Jong, T. P. Straatsma,
   H. J. J. van Dam, D. Wang, T. L. Windus, J. Hammond, J. Autschbach, A. Woods,
    K. Bhaskaran-Nair, J. Brabec, K. Lopata, S. A. Fischer, S. Krishnamoorthy,
     M. Jacquelin, W. Ma, M. Klemm, O. Villa, Y. Chen, V. Anisimov, F. Aquino,
     S. Hirata, M. T. Hackler, E. Hermes, L. Jensen, J. E. Moore, J. C. Becca,
      V. Konjkov, T. Risthaus, M. Malagoli, A. Marenich, A. Otero-de-la-Roza,
        J. Mullin, P. Nichols, R. Peverati, J. Pittner, Y. Zhao, P.-D. Fan,
        A. Fonari, M. J. Williamson, R. J. Harrison, J. R. Rehr, M. Dupuis,
     D. Silverstein, D. M. A. Smith, J. Nieplocha, V. Tipparaju, M. Krishnan,
     B. E. Van Kuiken, A. Vazquez-Mayagoitia, M. Swart, Q. Wu, T. Van Voorhis,
     A. A. Auer, M. Nooijen, L. D. Crosby, E. Brown, G. Cisneros, G. I. Fann,
   H. Fruchtl, J. Garza, K. Hirao, R. A. Kendall, J. A. Nichols, K. Tsemekhman,
    K. Wolinski, J. Anchell, D. E. Bernholdt, P. Borowski, T. Clark, D. Clerc,
   H. Dachsel, M. J. O. Deegan, K. Dyall, D. Elwood, E. Glendening, M. Gutowski,
   A. C. Hess, J. Jaffe, B. G. Johnson, J. Ju, R. Kobayashi, R. Kutteh, Z. Lin,
   R. Littlefield, X. Long, B. Meng, T. Nakajima, S. Niu, L. Pollack, M. Rosing,
   K. Glaesemann, G. Sandrone, M. Stave, H. Taylor, G. Thomas, J. H. van Lenthe,
                               A. T. Wong, Z. Zhang.

 Total times  cpu:       22.9s     wall:       28.1s
