 argument  1 = /home/milias/work/projects/Molecular-and-Materials-Modeling-2026-Winter/molecular-modeling/01_nwchem_performance_test/larger_basis_set/ch3_zora_b3lyp_prop.nw



============================== echo of input deck ==============================
echo
start ch3radical_rot
title ch3radical_rot
geometry noautoz units angstrom nocenter
 symmetry c1
 c +0.00000000 +0.00000000 +0.00000000
 h -0.21385373 +0.98738914 +0.39826283
 h -0.78597592 -0.69448290 +0.28059107
 h +0.09050298 +0.04455726 -1.08102723
end
BASIS "ao basis"
* library cc-pvtz
END
relativistic
 zora on
 zora:cutoff_NMR 1d-8
 zora:cutoff 1d-30
end
dft
 mult 2
 xc b3lyp
end
task dft
property
 gshift
 hyperfine
 shielding
end
task dft property
================================================================================


                                         
                                         


             Northwest Computational Chemistry Package (NWChem) 7.2.2
             --------------------------------------------------------


                    Environmental Molecular Sciences Laboratory
                       Pacific Northwest National Laboratory
                                Richland, WA 99352

                              Copyright (c) 1994-2022
                       Pacific Northwest National Laboratory
                            Battelle Memorial Institute

             NWChem is an open-source computational chemistry package
                        distributed under the terms of the
                      Educational Community License (ECL) 2.0
             A copy of the license is included with this distribution
                              in the LICENSE.TXT file

                                  ACKNOWLEDGMENT
                                  --------------

            This software and its documentation were developed at the
            EMSL at Pacific Northwest National Laboratory, a multiprogram
            national laboratory, operated for the U.S. Department of Energy
            by Battelle under Contract Number DE-AC05-76RL01830. Support
            for this work was provided by the Department of Energy Office
            of Biological and Environmental Research, Office of Basic
            Energy Sciences, and the Office of Advanced Scientific Computing.


           Job information
           ---------------

    hostname        = DESKTOP-7OTLCGO
    program         = /usr/bin/nwchem
    date            = Thu Feb 19 10:38:43 2026

    compiled        = Mon_Apr_01_11:12:32_2024
    source          = /build/nwchem-qbYJLs/nwchem-7.2.2/build-openmpi
    nwchem branch   = 7.2.2
    nwchem revision = N/A
    ga revision     = N/A
    use scalapack   = T
    input           = /home/milias/work/projects/Molecular-and-Materials-Modeling-2026-Winter/molecular-modeling/01_nwchem_performance_test/larger_basis_set/ch3_zora_b3lyp_prop.nw
    prefix          = ch3radical_rot.
    data base       = ./ch3radical_rot.db
    status          = startup
    nproc           =        2
    time left       =     -1s



           Memory information
           ------------------

    heap     =   26214396 doubles =    200.0 Mbytes
    stack    =   26214401 doubles =    200.0 Mbytes
    global   =   52428800 doubles =    400.0 Mbytes (distinct from heap & stack)
    total    =  104857597 doubles =    800.0 Mbytes
    verify   = yes
    hardfail = no 


           Directory information
           ---------------------

  0 permanent = .
  0 scratch   = .




                                NWChem Input Module
                                -------------------


                                  ch3radical_rot
                                  --------------

 Scaling coordinates for geometry "geometry" by  1.889725989
 (inverse scale =  0.529177249)

 Turning off AUTOSYM since
 SYMMETRY directive was detected!



                             Geometry "geometry" -> ""
                             -------------------------

 Output coordinates in angstroms (scale by  1.889725989 to convert to a.u.)

  No.       Tag          Charge          X              Y              Z
 ---- ---------------- ---------- -------------- -------------- --------------
    1 c                    6.0000     0.00000000     0.00000000     0.00000000
    2 h                    1.0000    -0.21385373     0.98738914     0.39826283
    3 h                    1.0000    -0.78597592    -0.69448290     0.28059107
    4 h                    1.0000     0.09050298     0.04455726    -1.08102723

      Atomic Mass 
      ----------- 

      c                 12.000000
      h                  1.007825


 Effective nuclear repulsion energy (a.u.)       9.6642548041

            Nuclear Dipole moment (a.u.) 
            ----------------------------
        X                 Y               Z
 ---------------- ---------------- ----------------
    -1.7183782404     0.6377135461    -0.7599973936


            XYZ format geometry
            -------------------
     4
 geometry
 c                     0.00000000     0.00000000     0.00000000
 h                    -0.21385373     0.98738914     0.39826283
 h                    -0.78597592    -0.69448290     0.28059107
 h                     0.09050298     0.04455726    -1.08102723

 ==============================================================================
                                internuclear distances
 ------------------------------------------------------------------------------
       center one      |      center two      | atomic units |  angstroms
 ------------------------------------------------------------------------------
    2 h                |   1 c                |     2.05214  |     1.08595
    3 h                |   1 c                |     2.05172  |     1.08572
    4 h                |   1 c                |     2.05172  |     1.08572
 ------------------------------------------------------------------------------
                         number of included internuclear distances:          3
 ==============================================================================



 ==============================================================================
                                 internuclear angles
 ------------------------------------------------------------------------------
        center 1       |       center 2       |       center 3       |  degrees
 ------------------------------------------------------------------------------
    2 h                |   1 c                |   3 h                |   110.14
    2 h                |   1 c                |   4 h                |   110.14
    3 h                |   1 c                |   4 h                |   110.12
 ------------------------------------------------------------------------------
                            number of included internuclear angles:          3
 ==============================================================================





 Summary of "ao basis" -> "" (cartesian)
 ------------------------------------------------------------------------------
       Tag                 Description            Shells   Functions and Types
 ---------------- ------------------------------  ------  ---------------------
 *                          cc-pvtz                   on all atoms 



                                 NWChem DFT Module
                                 -----------------


                                  ch3radical_rot


                      Basis "ao basis" -> "ao basis" (cartesian)
                      -----
  c (Carbon)
  ----------
            Exponent  Coefficients 
       -------------- ---------------------------------------------------------
  1 S  8.23600000E+03  0.000531
  1 S  1.23500000E+03  0.004108
  1 S  2.80800000E+02  0.021087
  1 S  7.92700000E+01  0.081853
  1 S  2.55900000E+01  0.234817
  1 S  8.99700000E+00  0.434401
  1 S  3.31900000E+00  0.346129
  1 S  3.64300000E-01 -0.008983

  2 S  8.23600000E+03 -0.000113
  2 S  1.23500000E+03 -0.000878
  2 S  2.80800000E+02 -0.004540
  2 S  7.92700000E+01 -0.018133
  2 S  2.55900000E+01 -0.055760
  2 S  8.99700000E+00 -0.126895
  2 S  3.31900000E+00 -0.170352
  2 S  3.64300000E-01  0.598684

  3 S  9.05900000E-01  1.000000

  4 S  1.28500000E-01  1.000000

  5 P  1.87100000E+01  0.014031
  5 P  4.13300000E+00  0.086866
  5 P  1.20000000E+00  0.290216

  6 P  3.82700000E-01  1.000000

  7 P  1.20900000E-01  1.000000

  8 D  1.09700000E+00  1.000000

  9 D  3.18000000E-01  1.000000

 10 F  7.61000000E-01  1.000000

  h (Hydrogen)
  ------------
            Exponent  Coefficients 
       -------------- ---------------------------------------------------------
  1 S  3.38700000E+01  0.006068
  1 S  5.09500000E+00  0.045308
  1 S  1.15900000E+00  0.202822

  2 S  3.25800000E-01  1.000000

  3 S  1.02700000E-01  1.000000

  4 P  1.40700000E+00  1.000000

  5 P  3.88000000E-01  1.000000

  6 D  1.05700000E+00  1.000000



 Summary of "ao basis" -> "ao basis" (cartesian)
 ------------------------------------------------------------------------------
       Tag                 Description            Shells   Functions and Types
 ---------------- ------------------------------  ------  ---------------------
 c                          cc-pvtz                 10       35   4s3p2d1f
 h                          cc-pvtz                  6       15   3s2p1d




 Summary of "ao basis" -> "ao basis" (cartesian)
 ------------------------------------------------------------------------------
       Tag                 Description            Shells   Functions and Types
 ---------------- ------------------------------  ------  ---------------------
 c                          cc-pvtz                 10       35   4s3p2d1f
 h                          cc-pvtz                  6       15   3s2p1d


  Caching 1-el integrals 

            General Information
            -------------------
          SCF calculation type: DFT
          Wavefunction type:  spin polarized.
          No. of atoms     :     4
          No. of electrons :     9
           Alpha electrons :     5
            Beta electrons :     4
          Charge           :     0
          Spin multiplicity:     2
          Use of symmetry is: off; symmetry adaption is: off
          Maximum number of iterations:  50
          AO basis - number of functions:    80
                     number of shells:    28
          Convergence on energy requested:  1.00D-06
          Convergence on density requested:  1.00D-05
          Convergence on gradient requested:  5.00D-04

              XC Information
              --------------
                         B3LYP Method XC Potential
                     Hartree-Fock (Exact) Exchange  0.200          
                        Slater Exchange Functional  0.800 local    
                    Becke 1988 Exchange Functional  0.720 non-local
              Lee-Yang-Parr Correlation Functional  0.810          
                  VWN I RPA Correlation Functional  0.190 local    

             Grid Information
             ----------------
          Grid used for XC integration:  medium    
          Radial quadrature: Mura-Knowles        
          Angular quadrature: Lebedev. 
          Tag              B.-S. Rad. Rad. Pts. Rad. Cut. Ang. Pts.
          ---              ---------- --------- --------- ---------
          c                   0.70       49           6.0       434
          h                   0.35       45           7.0       434
          Grid pruning is: on 
          Number of quadrature shells:   184
          Spatial weights used:  Erf1

          Convergence Information
          -----------------------
          Convergence aids based upon iterative change in 
          total energy or number of iterations. 
          Levelshifting, if invoked, occurs when the 
          HOMO/LUMO gap drops below (HL_TOL):  1.00D-02
          DIIS, if invoked, will attempt to extrapolate 
          using up to (NFOCK): 10 stored Fock matrices.

                    Damping( 0%)  Levelshifting(0.5)       DIIS
                  --------------- ------------------- ---------------
          dE  on:    start            ASAP                start   
          dE off:    2 iters         50 iters            50 iters 


      Screening Tolerance Information
      -------------------------------
          Density screening/tol_rho:  1.00D-10
          AO Gaussian exp screening on grid/accAOfunc:  14
          CD Gaussian exp screening on grid/accCDfunc:  20
          XC Gaussian exp screening on grid/accXCfunc:  20
          Schwarz screening/accCoul:  1.00D-08

 dft: using ZORA

      Superposition of Atomic Density Guess
      -------------------------------------

 Sum of atomic energies:         -39.16992435
          Performing ZORA calculations
          ----------------------------


 Read atomic ZORA corrections from ./ch3radical_rot.zora_sf

 dft_zora_read: failed to open./ch3radical_rot.zora_sf
       Generating atomic ZORA corrections
       ----------------------------------

 In dft_scf:: zora:Knucl= F

 Grid_pts file          = ./ch3radical_rot.gridpts.0
 Record size in doubles =  12289        No. of grid_pts per rec  =   3070
 Max. records in memory =     16        Max. recs in file   =   4912392


 Wrote atomic ZORA corrections to ./ch3radical_rot.zora_sf


      Superposition of Atomic Density Guess
      -------------------------------------

 Sum of atomic energies:         -39.16992435

      Non-variational initial energy
      ------------------------------

 Total energy =     -39.489754
 1-e energy   =     -70.470140
 2-e energy   =      21.316131
 HOMO         =      -0.209315
 LUMO         =       0.097761

  WARNING: movecs_in_org=atomic not equal to movecs_in=./ch3radical_rot.movecs
   Time after variat. SCF:      0.7
   Time prior to 1st pass:      0.7

 Integral file          = ./ch3radical_rot.aoints.0
 Record size in doubles =  65536        No. of integs per rec  =  43688
 Max. records in memory =     85        Max. records in file   = 921146
 No. of bits per label  =      8        No. of bits per value  =     64


 #quartets = 8.262D+04 #integrals = 5.515D+06 #direct =  0.0% #cached =100.0%


File balance: exchanges=     1  moved=     6  time=   0.0


           Memory utilization after 1st SCF pass: 
           Heap Space remaining (MW):       20.44            20444180
          Stack Space remaining (MW):       26.20            26200764

   convergence    iter        energy       DeltaE   RMS-Dens  Diis-err    time
 ---------------- ----- ----------------- --------- --------- ---------  ------
 d= 0,ls=0.0,diis     1    -39.8573189641 -4.95D+01  2.43D-03  4.47D-02     0.9
                                                     2.14D-03  4.04D-02
 d= 0,ls=0.0,diis     2    -39.8702418032 -1.29D-02  5.58D-04  2.32D-03     1.1
                                                     4.50D-04  2.55D-03
 d= 0,ls=0.0,diis     3    -39.8706842491 -4.42D-04  3.16D-04  2.19D-03     1.2
                                                     1.61D-04  1.36D-03
 d= 0,ls=0.0,diis     4    -39.8716104655 -9.26D-04  2.32D-05  2.78D-06     1.3
                                                     3.75D-05  2.38D-05
 d= 0,ls=0.0,diis     5    -39.8716222953 -1.18D-05  1.88D-05  2.61D-06     1.4
                                                     1.16D-05  8.78D-07
  Resetting Diis
 d= 0,ls=0.0,diis     6    -39.8716240768 -1.78D-06  4.05D-06  5.85D-08     1.6
                                                     4.47D-06  9.07D-08
 d= 0,ls=0.0,diis     7    -39.8716241886 -1.12D-07  6.28D-07  2.65D-09     1.7
                                                     3.27D-07  1.23D-09
(nogshift,skip_gshiftAOev,done_Fji)=( 1,F,F)


         Total DFT energy =      -39.871624188555
      One electron energy =      -71.651082159755
           Coulomb energy =       28.615913969703
    Exchange-Corr. energy =       -6.500710802612
 Nuclear repulsion energy =        9.664254804110

       Scaling correction =        0.008735412641

 Numeric. integr. density =        9.000000891964

     Total iterative time =      1.0s



                    DFT Final Alpha Molecular Orbital Analysis
                    ------------------------------------------

 Vector    1  Occ=1.000000D+00  E=-1.019632D+01
              MO Center=  3.0D-05, -1.1D-05,  1.3D-05, r^2= 2.8D-02
   Bfn.  Coefficient  Atom+Function         Bfn.  Coefficient  Atom+Function  
  ----- ------------  ---------------      ----- ------------  ---------------
     1      1.002074  1 C  s                  2      0.061831  1 C  s          
     3      0.052761  1 C  s          

 Vector    2  Occ=1.000000D+00  E=-6.958072D-01
              MO Center= -1.5D-01,  5.7D-02, -6.9D-02, r^2= 9.4D-01
   Bfn.  Coefficient  Atom+Function         Bfn.  Coefficient  Atom+Function  
  ----- ------------  ---------------      ----- ------------  ---------------
     2      0.425770  1 C  s                  4      0.207792  1 C  s          
     3      0.119908  1 C  s                 36      0.095131  2 H  s          
    51      0.095190  3 H  s                 66      0.095190  4 H  s          
    37      0.093882  2 H  s                 52      0.093925  3 H  s          
    67      0.093925  4 H  s                  1     -0.039003  1 C  s          

 Vector    3  Occ=1.000000D+00  E=-4.117912D-01
              MO Center= -1.3D-01,  2.6D-01,  5.7D-02, r^2= 1.2D+00
   Bfn.  Coefficient  Atom+Function         Bfn.  Coefficient  Atom+Function  
  ----- ------------  ---------------      ----- ------------  ---------------
    37      0.269311  2 H  s                  6      0.229327  1 C  py         
     9      0.194805  1 C  py                36      0.172641  2 H  s          
     7      0.139546  1 C  pz                52     -0.134634  3 H  s          
    67     -0.134629  4 H  s                 10      0.118541  1 C  pz         
    12      0.117518  1 C  py                38      0.117026  2 H  s          

 Vector    4  Occ=1.000000D+00  E=-4.117792D-01
              MO Center= -1.7D-01, -1.5D-01, -1.9D-01, r^2= 1.2D+00
   Bfn.  Coefficient  Atom+Function         Bfn.  Coefficient  Atom+Function  
  ----- ------------  ---------------      ----- ------------  ---------------
    52      0.233224  3 H  s                 67     -0.233227  4 H  s          
     7      0.206150  1 C  pz                10      0.175109  1 C  pz         
    51      0.149518  3 H  s                 66     -0.149520  4 H  s          
     5     -0.132698  1 C  px                 8     -0.112717  1 C  px         
     6     -0.111888  1 C  py                13      0.105637  1 C  pz         

 Vector    5  Occ=1.000000D+00  E=-2.657926D-01
              MO Center=  1.6D-01, -5.8D-02,  6.9D-02, r^2= 1.1D+00
   Bfn.  Coefficient  Atom+Function         Bfn.  Coefficient  Atom+Function  
  ----- ------------  ---------------      ----- ------------  ---------------
    11      0.317521  1 C  px                 8      0.314191  1 C  px         
     5      0.285292  1 C  px                 4      0.205389  1 C  s          
     2      0.144690  1 C  s                 13      0.140426  1 C  pz         
    10      0.138959  1 C  pz                 7      0.126167  1 C  pz         
    12     -0.117847  1 C  py                 9     -0.116601  1 C  py         

 Vector    6  Occ=0.000000D+00  E= 4.546879D-02
              MO Center= -3.9D-01,  1.5D-01, -1.7D-01, r^2= 5.4D+00
   Bfn.  Coefficient  Atom+Function         Bfn.  Coefficient  Atom+Function  
  ----- ------------  ---------------      ----- ------------  ---------------
     4      3.541004  1 C  s                 38     -1.338485  2 H  s          
    53     -1.338369  3 H  s                 68     -1.338369  4 H  s          
    11     -0.508466  1 C  px                20     -0.271554  1 C  dxx        
     2      0.262089  1 C  s                 25     -0.235561  1 C  dzz        
    23     -0.233007  1 C  dyy               13     -0.224863  1 C  pz         

 Vector    7  Occ=0.000000D+00  E= 1.143456D-01
              MO Center= -4.0D-01,  8.4D-01,  2.0D-01, r^2= 4.4D+00
   Bfn.  Coefficient  Atom+Function         Bfn.  Coefficient  Atom+Function  
  ----- ------------  ---------------      ----- ------------  ---------------
    38      2.488483  2 H  s                 53     -1.244981  3 H  s          
    68     -1.245004  4 H  s                 12     -1.223032  1 C  py         
    13     -0.744265  1 C  pz                 9     -0.223553  1 C  py         
     6     -0.179127  1 C  py                10     -0.136040  1 C  pz         
    11     -0.124956  1 C  px                 7     -0.108988  1 C  pz         

 Vector    8  Occ=0.000000D+00  E= 1.143711D-01
              MO Center= -5.3D-01, -4.9D-01, -6.1D-01, r^2= 4.4D+00
   Bfn.  Coefficient  Atom+Function         Bfn.  Coefficient  Atom+Function  
  ----- ------------  ---------------      ----- ------------  ---------------
    53      2.156004  3 H  s                 68     -2.155991  4 H  s          
    13     -1.099343  1 C  pz                11      0.707655  1 C  px         
    12      0.596695  1 C  py                10     -0.200981  1 C  pz         
     7     -0.160986  1 C  pz                 8      0.129373  1 C  px         
     9      0.109087  1 C  py                 5      0.103628  1 C  px         

 Vector    9  Occ=0.000000D+00  E= 2.325499D-01
              MO Center=  2.1D-01,  2.3D-01,  2.6D-01, r^2= 3.5D+00
   Bfn.  Coefficient  Atom+Function         Bfn.  Coefficient  Atom+Function  
  ----- ------------  ---------------      ----- ------------  ---------------
    52     -1.556341  3 H  s                 67      1.556303  4 H  s          
    13      1.535056  1 C  pz                11     -0.988139  1 C  px         
    12     -0.833224  1 C  py                53     -0.307925  3 H  s          
    68      0.307918  4 H  s                 25     -0.250814  1 C  dzz        
    21      0.241007  1 C  dxy               74      0.227824  4 H  pz         

 Vector   10  Occ=0.000000D+00  E= 2.325752D-01
              MO Center=  1.5D-01, -3.7D-01, -1.0D-01, r^2= 3.5D+00
   Bfn.  Coefficient  Atom+Function         Bfn.  Coefficient  Atom+Function  
  ----- ------------  ---------------      ----- ------------  ---------------
    37     -1.797000  2 H  s                 12      1.708045  1 C  py         
    13      1.039433  1 C  pz                52      0.898442  3 H  s          
    67      0.898507  4 H  s                 38     -0.355271  2 H  s          
    21     -0.296219  1 C  dxy               43      0.240585  2 H  py         
    24      0.228688  1 C  dyz               23      0.198680  1 C  dyy        

 Vector   11  Occ=0.000000D+00  E= 2.693077D-01
              MO Center=  2.9D-01, -1.1D-01,  1.3D-01, r^2= 3.5D+00
   Bfn.  Coefficient  Atom+Function         Bfn.  Coefficient  Atom+Function  
  ----- ------------  ---------------      ----- ------------  ---------------
     4      1.348502  1 C  s                 11      1.166304  1 C  px         
     8     -1.030179  1 C  px                13      0.515831  1 C  pz         
    20     -0.515150  1 C  dxx               25     -0.480651  1 C  dzz        
    23     -0.478195  1 C  dyy               10     -0.455625  1 C  pz         
    12     -0.432825  1 C  py                 3     -0.412790  1 C  s          

 Vector   12  Occ=0.000000D+00  E= 3.545817D-01
              MO Center= -3.3D-01,  1.2D-01, -1.4D-01, r^2= 3.1D+00
   Bfn.  Coefficient  Atom+Function         Bfn.  Coefficient  Atom+Function  
  ----- ------------  ---------------      ----- ------------  ---------------
     4      7.651351  1 C  s                 37     -1.249406  2 H  s          
    52     -1.250983  3 H  s                 67     -1.250983  4 H  s          
    23     -1.063095  1 C  dyy               25     -1.058342  1 C  dzz        
    38     -1.037097  2 H  s                 53     -1.040046  3 H  s          
    68     -1.040045  4 H  s                 20     -0.998319  1 C  dxx        

 Vector   13  Occ=0.000000D+00  E= 4.240541D-01
              MO Center= -4.2D-01,  1.6D-01, -1.9D-01, r^2= 4.4D+00
   Bfn.  Coefficient  Atom+Function         Bfn.  Coefficient  Atom+Function  
  ----- ------------  ---------------      ----- ------------  ---------------
     4      8.357381  1 C  s                 38     -1.925449  2 H  s          
    53     -1.919123  3 H  s                 68     -1.919123  4 H  s          
    20     -1.215928  1 C  dxx               11     -1.013448  1 C  px         
    25     -0.926782  1 C  dzz                3     -0.909295  1 C  s          
    23     -0.904803  1 C  dyy               74     -0.477336  4 H  pz         

 Vector   14  Occ=0.000000D+00  E= 4.565967D-01
              MO Center= -1.9D-01,  4.5D-01,  1.2D-01, r^2= 3.9D+00
   Bfn.  Coefficient  Atom+Function         Bfn.  Coefficient  Atom+Function  
  ----- ------------  ---------------      ----- ------------  ---------------
    38      2.945260  2 H  s                 12     -2.336091  1 C  py         
    53     -1.476712  3 H  s                 68     -1.476784  4 H  s          
    13     -1.422344  1 C  pz                21      0.743731  1 C  dxy        
    43     -0.727583  2 H  py                24     -0.689708  1 C  dyz        
    23     -0.533164  1 C  dyy               37      0.480663  2 H  s          

 Vector   15  Occ=0.000000D+00  E= 4.566384D-01
              MO Center= -2.7D-01, -2.9D-01, -3.3D-01, r^2= 3.9D+00
   Bfn.  Coefficient  Atom+Function         Bfn.  Coefficient  Atom+Function  
  ----- ------------  ---------------      ----- ------------  ---------------
    53      2.553420  3 H  s                 68     -2.553379  4 H  s          
    13     -2.100032  1 C  pz                11      1.351815  1 C  px         
    12      1.139870  1 C  py                74     -0.696544  4 H  pz         
    25      0.679785  1 C  dzz               21     -0.666325  1 C  dxy        
    58      0.501131  3 H  py                57      0.477513  3 H  px         

 Vector   16  Occ=0.000000D+00  E= 5.315697D-01
              MO Center= -1.7D-01,  1.1D-01, -4.7D-02, r^2= 1.9D+00
   Bfn.  Coefficient  Atom+Function         Bfn.  Coefficient  Atom+Function  
  ----- ------------  ---------------      ----- ------------  ---------------
    21      0.454794  1 C  dxy               59     -0.392374  3 H  pz         
    22      0.364581  1 C  dxz               42      0.353749  2 H  px         
    72     -0.305670  4 H  px                73     -0.270529  4 H  py         
    44      0.201052  2 H  pz                24      0.187911  1 C  dyz        
     9      0.162285  1 C  py                37     -0.159877  2 H  s          

 Vector   17  Occ=0.000000D+00  E= 5.316156D-01
              MO Center= -1.8D-01,  1.7D-02, -1.0D-01, r^2= 1.9D+00
   Bfn.  Coefficient  Atom+Function         Bfn.  Coefficient  Atom+Function  
  ----- ------------  ---------------      ----- ------------  ---------------
    22      0.334162  1 C  dxz               24     -0.315477  1 C  dyz        
    44     -0.315780  2 H  pz                73      0.311329  4 H  py         
    57      0.296799  3 H  px                58     -0.283574  3 H  py         
    20     -0.277569  1 C  dxx               72     -0.263883  4 H  px         
    42      0.203261  2 H  px                43      0.171394  2 H  py         

 Vector   18  Occ=0.000000D+00  E= 7.790779D-01
              MO Center= -1.4D-01,  5.1D-02, -6.0D-02, r^2= 2.3D+00
   Bfn.  Coefficient  Atom+Function         Bfn.  Coefficient  Atom+Function  
  ----- ------------  ---------------      ----- ------------  ---------------
     4      4.368911  1 C  s                 37     -1.452166  2 H  s          
    52     -1.452370  3 H  s                 67     -1.452370  4 H  s          
    22     -0.976659  1 C  dxz               11     -0.924218  1 C  px         
    20     -0.840137  1 C  dxx               21      0.819602  1 C  dxy        
    38     -0.529051  2 H  s                 53     -0.529420  3 H  s          

 Vector   19  Occ=0.000000D+00  E= 8.700803D-01
              MO Center= -3.0D-01,  1.1D-01, -1.3D-01, r^2= 2.4D+00
   Bfn.  Coefficient  Atom+Function         Bfn.  Coefficient  Atom+Function  
  ----- ------------  ---------------      ----- ------------  ---------------
    73      0.737642  4 H  py                59     -0.648163  3 H  pz         
    44      0.597943  2 H  pz                58     -0.413699  3 H  py         
    42     -0.384898  2 H  px                43     -0.324543  2 H  py         
    72      0.250024  4 H  px                34     -0.148003  1 C  fyzz       
    57      0.134163  3 H  px                30      0.123178  1 C  fxyz       

 Vector   20  Occ=0.000000D+00  E= 9.245068D-01
              MO Center= -8.3D-02,  4.1D-02, -3.1D-02, r^2= 2.7D+00
   Bfn.  Coefficient  Atom+Function         Bfn.  Coefficient  Atom+Function  
  ----- ------------  ---------------      ----- ------------  ---------------
    37      2.233449  2 H  s                 12     -1.471478  1 C  py         
    52     -1.117471  3 H  s                 67     -1.117502  4 H  s          
    24     -1.085604  1 C  dyz               13     -0.895590  1 C  pz         
     9     -0.776156  1 C  py                42      0.726435  2 H  px         
    73      0.585083  4 H  py                23     -0.538915  1 C  dyy        

 Vector   21  Occ=0.000000D+00  E= 9.245831D-01
              MO Center= -8.5D-02,  2.1D-02, -4.4D-02, r^2= 2.7D+00
   Bfn.  Coefficient  Atom+Function         Bfn.  Coefficient  Atom+Function  
  ----- ------------  ---------------      ----- ------------  ---------------
    52      1.936558  3 H  s                 67     -1.936541  4 H  s          
    13     -1.322816  1 C  pz                11      0.851507  1 C  px         
    21     -0.781746  1 C  dxy               25      0.731665  1 C  dzz        
    72     -0.729271  4 H  px                12      0.717995  1 C  py         
    10     -0.698706  1 C  pz                57      0.560304  3 H  px         

 Vector   22  Occ=0.000000D+00  E= 9.753559D-01
              MO Center= -2.2D-02,  2.2D-02, -2.1D-03, r^2= 2.4D+00
   Bfn.  Coefficient  Atom+Function         Bfn.  Coefficient  Atom+Function  
  ----- ------------  ---------------      ----- ------------  ---------------
    52      2.320094  3 H  s                 67     -2.320843  4 H  s          
    25      1.733465  1 C  dzz               21     -1.658626  1 C  dxy        
    20     -1.156111  1 C  dxx               10     -0.691353  1 C  pz         
    22      0.680591  1 C  dxz               13     -0.670335  1 C  pz         
    72      0.671056  4 H  px                23     -0.577354  1 C  dyy        

 Vector   23  Occ=0.000000D+00  E= 9.753764D-01
              MO Center= -2.4D-02, -4.8D-03, -1.8D-02, r^2= 2.4D+00
   Bfn.  Coefficient  Atom+Function         Bfn.  Coefficient  Atom+Function  
  ----- ------------  ---------------      ----- ------------  ---------------
    37      2.678857  2 H  s                 21      2.075709  1 C  dxy        
    24     -1.549623  1 C  dyz               23     -1.377664  1 C  dyy        
    52     -1.340430  3 H  s                 67     -1.339134  4 H  s          
    25      0.892259  1 C  dzz                9     -0.768597  1 C  py         
    12     -0.746241  1 C  py                42     -0.520909  2 H  px         

 Vector   24  Occ=0.000000D+00  E= 1.078029D+00
              MO Center=  2.9D-02, -1.1D-02,  1.3D-02, r^2= 2.6D+00
   Bfn.  Coefficient  Atom+Function         Bfn.  Coefficient  Atom+Function  
  ----- ------------  ---------------      ----- ------------  ---------------
     4      1.930607  1 C  s                 20     -1.685460  1 C  dxx        
    22     -1.066294  1 C  dxz               72     -0.915910  4 H  px         
    21      0.892350  1 C  dxy               42     -0.758221  2 H  px         
    25     -0.717061  1 C  dzz               11      0.680359  1 C  px         
    58      0.679681  3 H  py                23     -0.646505  1 C  dyy        

 Vector   25  Occ=0.000000D+00  E= 1.230158D+00
              MO Center=  5.4D-02, -2.0D-02,  2.4D-02, r^2= 3.0D+00
   Bfn.  Coefficient  Atom+Function         Bfn.  Coefficient  Atom+Function  
  ----- ------------  ---------------      ----- ------------  ---------------
     4     10.400909  1 C  s                 23     -3.842291  1 C  dyy        
    25     -3.805211  1 C  dzz               20     -3.282452  1 C  dxx        
     3     -2.003235  1 C  s                 38     -1.439147  2 H  s          
    53     -1.439594  3 H  s                 68     -1.439593  4 H  s          
     2      1.051692  1 C  s                 37      0.775983  2 H  s          

 Vector   26  Occ=0.000000D+00  E= 1.276812D+00
              MO Center=  1.2D-02,  5.1D-02,  3.5D-02, r^2= 2.7D+00
   Bfn.  Coefficient  Atom+Function         Bfn.  Coefficient  Atom+Function  
  ----- ------------  ---------------      ----- ------------  ---------------
    22      2.114281  1 C  dxz               24      1.815162  1 C  dyz        
    21      1.759027  1 C  dxy               37      1.725813  2 H  s          
    12     -1.587873  1 C  py                59      1.442749  3 H  pz         
    38      1.293989  2 H  s                 73      1.132630  4 H  py         
     9     -1.097563  1 C  py                43     -1.102587  2 H  py         

 Vector   27  Occ=0.000000D+00  E= 1.276847D+00
              MO Center=  1.4D-03, -5.4D-02, -2.8D-02, r^2= 2.7D+00
   Bfn.  Coefficient  Atom+Function         Bfn.  Coefficient  Atom+Function  
  ----- ------------  ---------------      ----- ------------  ---------------
    24      1.926999  1 C  dyz               22     -1.671958  1 C  dxz        
    52     -1.488072  3 H  s                 67      1.487726  4 H  s          
    58     -1.466139  3 H  py                13      1.424122  1 C  pz         
    44     -1.156966  2 H  pz                20      1.120382  1 C  dxx        
    53     -1.117319  3 H  s                 68      1.117060  4 H  s          

 Vector   28  Occ=0.000000D+00  E= 1.296993D+00
              MO Center= -2.2D-01,  3.1D-01,  2.5D-02, r^2= 2.9D+00
   Bfn.  Coefficient  Atom+Function         Bfn.  Coefficient  Atom+Function  
  ----- ------------  ---------------      ----- ------------  ---------------
    37      4.328174  2 H  s                 24     -3.214212  1 C  dyz        
     9     -3.114077  1 C  py                43     -2.808510  2 H  py         
    52     -2.162726  3 H  s                 67     -2.163026  4 H  s          
    10     -1.895178  1 C  pz                74     -1.584567  4 H  pz         
    38      1.553088  2 H  s                 23     -1.544877  1 C  dyy        

 Vector   29  Occ=0.000000D+00  E= 1.297071D+00
              MO Center= -2.7D-01, -1.3D-01, -2.4D-01, r^2= 2.9D+00
   Bfn.  Coefficient  Atom+Function         Bfn.  Coefficient  Atom+Function  
  ----- ------------  ---------------      ----- ------------  ---------------
    52      3.753676  3 H  s                 67     -3.753502  4 H  s          
    10     -2.802696  1 C  pz                74     -2.652510  4 H  pz         
    21     -2.262570  1 C  dxy               57      2.208992  3 H  px         
    25      2.102169  1 C  dzz                8      1.804167  1 C  px         
     9      1.521374  1 C  py                24      1.492587  1 C  dyz        

 Vector   30  Occ=0.000000D+00  E= 1.460381D+00
              MO Center= -3.9D-01,  1.4D-01, -1.7D-01, r^2= 2.5D+00
   Bfn.  Coefficient  Atom+Function         Bfn.  Coefficient  Atom+Function  
  ----- ------------  ---------------      ----- ------------  ---------------
    23      0.858594  1 C  dyy               25      0.823671  1 C  dzz        
     3      0.767025  1 C  s                 74     -0.726117  4 H  pz         
     4     -0.705860  1 C  s                 57     -0.660560  3 H  px         
     2      0.656014  1 C  s                 36     -0.650490  2 H  s          
    43      0.653571  2 H  py                37      0.647378  2 H  s          

 Vector   31  Occ=0.000000D+00  E= 1.648370D+00
              MO Center= -2.6D-01,  1.0D-01, -1.1D-01, r^2= 1.8D+00
   Bfn.  Coefficient  Atom+Function         Bfn.  Coefficient  Atom+Function  
  ----- ------------  ---------------      ----- ------------  ---------------
     8      3.084584  1 C  px                 4      2.196351  1 C  s          
    37     -1.762364  2 H  s                 52     -1.684931  3 H  s          
    67     -1.684965  4 H  s                 10      1.364593  1 C  pz         
    29     -1.294306  1 C  fxyy              31     -1.285217  1 C  fxzz       
    26     -1.241588  1 C  fxxx               5     -1.140138  1 C  px         

 Vector   32  Occ=0.000000D+00  E= 1.648993D+00
              MO Center= -2.8D-01, -2.2D-01, -3.0D-01, r^2= 2.2D+00
   Bfn.  Coefficient  Atom+Function         Bfn.  Coefficient  Atom+Function  
  ----- ------------  ---------------      ----- ------------  ---------------
    52      3.024722  3 H  s                 67     -3.024852  4 H  s          
    51     -1.093695  3 H  s                 66      1.093744  4 H  s          
    74     -0.743544  4 H  pz                53     -0.670394  3 H  s          
    68      0.670429  4 H  s                 57      0.583249  3 H  px         
    65     -0.550395  3 H  dzz               75      0.519374  4 H  dxx        

 Vector   33  Occ=0.000000D+00  E= 1.648996D+00
              MO Center= -2.2D-01,  3.9D-01,  7.4D-02, r^2= 2.2D+00
   Bfn.  Coefficient  Atom+Function         Bfn.  Coefficient  Atom+Function  
  ----- ------------  ---------------      ----- ------------  ---------------
    37      3.467397  2 H  s                 52     -1.772279  3 H  s          
    67     -1.772024  4 H  s                 36     -1.256669  2 H  s          
    38     -0.778209  2 H  s                 43     -0.778917  2 H  py         
    51      0.637621  3 H  s                 66      0.637529  4 H  s          
    50     -0.592517  2 H  dzz               45     -0.571669  2 H  dxx        

 Vector   34  Occ=0.000000D+00  E= 2.487856D+00
              MO Center= -1.3D-01,  8.7D-03, -8.0D-02, r^2= 1.2D+00
   Bfn.  Coefficient  Atom+Function         Bfn.  Coefficient  Atom+Function  
  ----- ------------  ---------------      ----- ------------  ---------------
    37     -4.760414  2 H  s                  9      4.370686  1 C  py         
    10      2.657957  1 C  pz                52      2.374487  3 H  s          
    67      2.374939  4 H  s                 43      1.740625  2 H  py         
    24      1.660978  1 C  dyz               21     -1.271957  1 C  dxy        
    23      1.050981  1 C  dyy               74      0.937721  4 H  pz         

 Vector   35  Occ=0.000000D+00  E= 2.487906D+00
              MO Center= -1.2D-01,  8.7D-02, -3.3D-02, r^2= 1.2D+00
   Bfn.  Coefficient  Atom+Function         Bfn.  Coefficient  Atom+Function  
  ----- ------------  ---------------      ----- ------------  ---------------
    52     -4.124111  3 H  s                 67      4.123851  4 H  s          
    10      3.930560  1 C  pz                 8     -2.530235  1 C  px         
     9     -2.133693  1 C  py                74      1.657256  4 H  pz         
    21      1.396417  1 C  dxy               25     -1.373230  1 C  dzz        
    57     -1.153885  3 H  px                58     -1.144779  3 H  py         

 Vector   36  Occ=0.000000D+00  E= 2.592269D+00
              MO Center=  7.5D-03, -2.8D-03,  3.3D-03, r^2= 1.3D+00
   Bfn.  Coefficient  Atom+Function         Bfn.  Coefficient  Atom+Function  
  ----- ------------  ---------------      ----- ------------  ---------------
     4      2.529183  1 C  s                 37      2.052108  2 H  s          
    52      2.055144  3 H  s                 67      2.055144  4 H  s          
    23     -1.899811  1 C  dyy               25     -1.869816  1 C  dzz        
     3     -1.600896  1 C  s                 20     -1.444854  1 C  dxx        
    30     -1.311011  1 C  fxyz               8      1.257210  1 C  px         

 Vector   37  Occ=0.000000D+00  E= 2.718204D+00
              MO Center= -2.8D-02,  8.7D-03, -1.3D-02, r^2= 1.8D+00
   Bfn.  Coefficient  Atom+Function         Bfn.  Coefficient  Atom+Function  
  ----- ------------  ---------------      ----- ------------  ---------------
    37      4.447370  2 H  s                 52      4.424968  3 H  s          
    67      4.424975  4 H  s                 23     -3.179496  1 C  dyy        
    25     -3.111781  1 C  dzz                3     -2.747238  1 C  s          
     8      2.325722  1 C  px                20     -2.283521  1 C  dxx        
     4      1.855442  1 C  s                 74      1.332137  4 H  pz         

 Vector   38  Occ=0.000000D+00  E= 2.729551D+00
              MO Center= -1.0D-01, -4.8D-02, -9.3D-02, r^2= 1.2D+00
   Bfn.  Coefficient  Atom+Function         Bfn.  Coefficient  Atom+Function  
  ----- ------------  ---------------      ----- ------------  ---------------
    52      2.431476  3 H  s                 67     -2.432446  4 H  s          
    10     -1.779539  1 C  pz                 8      1.145159  1 C  px         
    25      1.086100  1 C  dzz               21     -0.987137  1 C  dxy        
     9      0.964971  1 C  py                20     -0.875608  1 C  dxx        
    74     -0.877351  4 H  pz                31      0.853545  1 C  fxzz       

 Vector   39  Occ=0.000000D+00  E= 2.729566D+00
              MO Center= -8.6D-02,  1.2D-01,  1.0D-02, r^2= 1.2D+00
   Bfn.  Coefficient  Atom+Function         Bfn.  Coefficient  Atom+Function  
  ----- ------------  ---------------      ----- ------------  ---------------
    37      2.778266  2 H  s                  9     -1.972865  1 C  py         
    21      1.539558  1 C  dxy               52     -1.433186  3 H  s          
    67     -1.431517  4 H  s                 10     -1.209486  1 C  pz         
    12     -0.900776  1 C  py                43     -0.897435  2 H  py         
    23     -0.868810  1 C  dyy               29     -0.697392  1 C  fxyy       

 Vector   40  Occ=0.000000D+00  E= 2.810615D+00
              MO Center= -1.1D-01,  3.9D-02, -4.7D-02, r^2= 1.2D+00
   Bfn.  Coefficient  Atom+Function         Bfn.  Coefficient  Atom+Function  
  ----- ------------  ---------------      ----- ------------  ---------------
    34      1.645278  1 C  fyzz              30     -1.370118  1 C  fxyz       
    29     -0.680294  1 C  fxyy              32     -0.565323  1 C  fyyy       
    28     -0.457248  1 C  fxxz              31      0.459265  1 C  fxzz       
    73     -0.436942  4 H  py                59      0.384032  3 H  pz         
    44     -0.353185  2 H  pz                58      0.245729  3 H  py         

 Vector   41  Occ=0.000000D+00  E= 2.887403D+00
              MO Center= -5.3D-02,  2.0D-02, -2.3D-02, r^2= 1.0D+00
   Bfn.  Coefficient  Atom+Function         Bfn.  Coefficient  Atom+Function  
  ----- ------------  ---------------      ----- ------------  ---------------
     4      1.750032  1 C  s                 20     -1.567664  1 C  dxx        
     8      1.173584  1 C  px                33      1.079354  1 C  fyyz       
     3     -0.969442  1 C  s                 30      0.970093  1 C  fxyz       
    22     -0.940880  1 C  dxz               37      0.895715  2 H  s          
    52      0.884824  3 H  s                 67      0.884824  4 H  s          

 Vector   42  Occ=0.000000D+00  E= 2.903467D+00
              MO Center= -3.2D-02,  1.7D-02, -1.1D-02, r^2= 1.2D+00
   Bfn.  Coefficient  Atom+Function         Bfn.  Coefficient  Atom+Function  
  ----- ------------  ---------------      ----- ------------  ---------------
     9      2.162529  1 C  py                24     -1.451078  1 C  dyz        
    37     -1.382572  2 H  s                 10      1.321130  1 C  pz         
    22     -1.143808  1 C  dxz               18      1.079720  1 C  dyz        
    43      1.030873  2 H  py                30      0.878374  1 C  fxyz       
    52      0.704100  3 H  s                 67      0.704265  4 H  s          

 Vector   43  Occ=0.000000D+00  E= 2.903512D+00
              MO Center= -3.3D-02,  7.1D-03, -1.8D-02, r^2= 1.2D+00
   Bfn.  Coefficient  Atom+Function         Bfn.  Coefficient  Atom+Function  
  ----- ------------  ---------------      ----- ------------  ---------------
    10      1.944719  1 C  pz                 8     -1.251897  1 C  px         
    52     -1.203725  3 H  s                 67      1.203629  4 H  s          
    24      1.099438  1 C  dyz                9     -1.055725  1 C  py         
    74      0.993279  4 H  pz                30     -0.950453  1 C  fxyz       
    58     -0.898961  3 H  py                22     -0.727053  1 C  dxz        

 Vector   44  Occ=0.000000D+00  E= 2.968391D+00
              MO Center=  2.8D-02,  3.4D-02,  3.7D-02, r^2= 1.1D+00
   Bfn.  Coefficient  Atom+Function         Bfn.  Coefficient  Atom+Function  
  ----- ------------  ---------------      ----- ------------  ---------------
    31      1.582907  1 C  fxzz              27     -0.846178  1 C  fxxy       
    22     -0.817484  1 C  dxz               24      0.771357  1 C  dyz        
    26     -0.685265  1 C  fxxx              20      0.679315  1 C  dxx        
    57      0.608513  3 H  px                72     -0.568132  4 H  px         
    16      0.555257  1 C  dxz               30     -0.521099  1 C  fxyz       

 Vector   45  Occ=0.000000D+00  E= 2.968419D+00
              MO Center=  1.9D-02, -5.2D-02, -1.6D-02, r^2= 1.1D+00
   Bfn.  Coefficient  Atom+Function         Bfn.  Coefficient  Atom+Function  
  ----- ------------  ---------------      ----- ------------  ---------------
    29      1.566313  1 C  fxyy              21      1.115204  1 C  dxy        
    27     -1.116701  1 C  fxxy              34      0.989461  1 C  fyzz       
    22      0.892443  1 C  dxz               15     -0.859440  1 C  dxy        
    42     -0.664912  2 H  px                31     -0.615980  1 C  fxzz       
    30      0.584507  1 C  fxyz              16     -0.549251  1 C  dxz        

 Vector   46  Occ=0.000000D+00  E= 3.150839D+00
              MO Center= -1.5D-01,  2.2D-01,  1.8D-02, r^2= 1.8D+00
   Bfn.  Coefficient  Atom+Function         Bfn.  Coefficient  Atom+Function  
  ----- ------------  ---------------      ----- ------------  ---------------
    37      3.109573  2 H  s                  9     -2.448142  1 C  py         
    43     -2.181826  2 H  py                24     -1.982195  1 C  dyz        
    21      1.901982  1 C  dxy               52     -1.551733  3 H  s          
    67     -1.551765  4 H  s                 10     -1.490273  1 C  pz         
    30      1.457061  1 C  fxyz              23     -1.427182  1 C  dyy        

 Vector   47  Occ=0.000000D+00  E= 3.151108D+00
              MO Center= -1.9D-01, -9.1D-02, -1.7D-01, r^2= 1.8D+00
   Bfn.  Coefficient  Atom+Function         Bfn.  Coefficient  Atom+Function  
  ----- ------------  ---------------      ----- ------------  ---------------
    52      2.692426  3 H  s                 67     -2.692407  4 H  s          
    10     -2.201989  1 C  pz                74     -2.061169  4 H  pz         
    25      1.833408  1 C  dzz               21     -1.819516  1 C  dxy        
    27      1.444548  1 C  fxxy              57      1.450042  3 H  px         
     8      1.417436  1 C  px                58      1.354233  3 H  py         

 Vector   48  Occ=0.000000D+00  E= 3.220376D+00
              MO Center=  6.9D-02, -2.6D-02,  3.0D-02, r^2= 1.7D+00
   Bfn.  Coefficient  Atom+Function         Bfn.  Coefficient  Atom+Function  
  ----- ------------  ---------------      ----- ------------  ---------------
     4      2.759418  1 C  s                 23     -2.518296  1 C  dyy        
    25     -2.476963  1 C  dzz                3     -2.286191  1 C  s          
    29      1.925444  1 C  fxyy              20     -1.868876  1 C  dxx        
    35      1.179957  1 C  fzzz              33     -1.063704  1 C  fyyz       
    37      1.057038  2 H  s                 52      1.061993  3 H  s          

 Vector   49  Occ=0.000000D+00  E= 3.287855D+00
              MO Center= -3.7D-01,  1.4D-01, -1.6D-01, r^2= 1.5D+00
   Bfn.  Coefficient  Atom+Function         Bfn.  Coefficient  Atom+Function  
  ----- ------------  ---------------      ----- ------------  ---------------
    76      0.719827  4 H  dxy               62     -0.406867  3 H  dxz        
    61     -0.399488  3 H  dxy               50      0.378993  2 H  dzz        
    65     -0.380448  3 H  dzz               45     -0.376987  2 H  dxx        
    47      0.341693  2 H  dxz               46     -0.320252  2 H  dxy        
    63      0.280950  3 H  dyy               70     -0.280843  4 H  py         

 Vector   50  Occ=0.000000D+00  E= 3.360106D+00
              MO Center= -1.8D-01,  4.3D-01,  1.1D-01, r^2= 1.4D+00
   Bfn.  Coefficient  Atom+Function         Bfn.  Coefficient  Atom+Function  
  ----- ------------  ---------------      ----- ------------  ---------------
    24      1.147771  1 C  dyz               47     -1.087232  2 H  dxz        
    22      0.762907  1 C  dxz               76     -0.628493  4 H  dxy        
    49     -0.497483  2 H  dyz               64     -0.467350  3 H  dyz        
     9      0.441619  1 C  py                37     -0.427976  2 H  s          
    30     -0.393723  1 C  fxyz              34     -0.356343  1 C  fyzz       

 Vector   51  Occ=0.000000D+00  E= 3.360279D+00
              MO Center= -2.5D-01, -2.7D-01, -3.1D-01, r^2= 1.4D+00
   Bfn.  Coefficient  Atom+Function         Bfn.  Coefficient  Atom+Function  
  ----- ------------  ---------------      ----- ------------  ---------------
    64      0.891347  3 H  dyz               24     -0.759287  1 C  dyz        
    62     -0.599237  3 H  dxz               21      0.594547  1 C  dxy        
    76     -0.570900  4 H  dxy               23      0.553537  1 C  dyy        
    75      0.527810  4 H  dxx               78     -0.483042  4 H  dyy        
    25     -0.480086  1 C  dzz               22      0.423136  1 C  dxz        

 Vector   52  Occ=0.000000D+00  E= 3.646897D+00
              MO Center= -3.7D-01,  1.4D-01, -1.6D-01, r^2= 1.6D+00
   Bfn.  Coefficient  Atom+Function         Bfn.  Coefficient  Atom+Function  
  ----- ------------  ---------------      ----- ------------  ---------------
     4      3.890224  1 C  s                  8      2.851049  1 C  px         
    23     -2.194448  1 C  dyy               25     -2.160518  1 C  dzz        
     3     -1.881551  1 C  s                 31     -1.791288  1 C  fxzz       
    33     -1.775292  1 C  fyyz              20     -1.690318  1 C  dxx        
    10      1.262435  1 C  pz                26     -1.256099  1 C  fxxx       

 Vector   53  Occ=0.000000D+00  E= 3.717107D+00
              MO Center= -1.6D-01, -5.9D-02, -1.3D-01, r^2= 1.6D+00
   Bfn.  Coefficient  Atom+Function         Bfn.  Coefficient  Atom+Function  
  ----- ------------  ---------------      ----- ------------  ---------------
    24      1.334302  1 C  dyz               28     -1.298856  1 C  fxxz       
    30     -1.251679  1 C  fxyz               9      1.199694  1 C  py         
    22      1.117926  1 C  dxz               34     -0.917947  1 C  fyzz       
    27     -0.749718  1 C  fxxy              10      0.725469  1 C  pz         
    59      0.698957  3 H  pz                73      0.582228  4 H  py         

 Vector   54  Occ=0.000000D+00  E= 3.717225D+00
              MO Center= -1.3D-01,  1.7D-01,  4.7D-03, r^2= 1.6D+00
   Bfn.  Coefficient  Atom+Function         Bfn.  Coefficient  Atom+Function  
  ----- ------------  ---------------      ----- ------------  ---------------
    30      1.203430  1 C  fxyz              10      1.076465  1 C  pz         
    24     -1.067169  1 C  dyz               33     -0.970633  1 C  fyyz       
    28     -0.850971  1 C  fxxz              22      0.748265  1 C  dxz        
     8     -0.692933  1 C  px                23      0.677938  1 C  dyy        
    44      0.638052  2 H  pz                27     -0.623192  1 C  fxxy       

 Vector   55  Occ=0.000000D+00  E= 3.868925D+00
              MO Center= -3.0D-01,  2.6D-01, -5.6D-02, r^2= 1.6D+00
   Bfn.  Coefficient  Atom+Function         Bfn.  Coefficient  Atom+Function  
  ----- ------------  ---------------      ----- ------------  ---------------
    52      0.986564  3 H  s                 67     -0.986535  4 H  s          
    30      0.739239  1 C  fxyz              27     -0.627766  1 C  fxxy       
    76      0.516897  4 H  dxy               65     -0.490384  3 H  dzz        
    24      0.487662  1 C  dyz               41      0.482088  2 H  pz         
    44     -0.478164  2 H  pz                47     -0.471621  2 H  dxz        

 Vector   56  Occ=0.000000D+00  E= 3.869080D+00
              MO Center= -3.3D-01, -2.0D-02, -2.2D-01, r^2= 1.6D+00
   Bfn.  Coefficient  Atom+Function         Bfn.  Coefficient  Atom+Function  
  ----- ------------  ---------------      ----- ------------  ---------------
    37      1.139247  2 H  s                 30     -0.873825  1 C  fxyz       
    24     -0.755398  1 C  dyz               62     -0.725350  3 H  dxz        
    28     -0.674505  1 C  fxxz              52     -0.569382  3 H  s          
    67     -0.569431  4 H  s                 56      0.527411  3 H  pz         
    59     -0.519866  3 H  pz                22     -0.486018  1 C  dxz        

 Vector   57  Occ=0.000000D+00  E= 3.960232D+00
              MO Center= -2.9D-01,  3.7D-01,  1.7D-02, r^2= 1.7D+00
   Bfn.  Coefficient  Atom+Function         Bfn.  Coefficient  Atom+Function  
  ----- ------------  ---------------      ----- ------------  ---------------
     9      1.308872  1 C  py                 8     -1.112682  1 C  px         
    27     -0.962609  1 C  fxxy              46     -0.797250  2 H  dxy        
    39     -0.646285  2 H  px                 4     -0.640154  1 C  s          
    23      0.628539  1 C  dyy               34     -0.602402  1 C  fyzz       
    29      0.594629  1 C  fxyy              42      0.574293  2 H  px         

 Vector   58  Occ=0.000000D+00  E= 3.960398D+00
              MO Center= -3.3D-01, -6.8D-02, -2.5D-01, r^2= 1.7D+00
   Bfn.  Coefficient  Atom+Function         Bfn.  Coefficient  Atom+Function  
  ----- ------------  ---------------      ----- ------------  ---------------
    10      0.790287  1 C  pz                77     -0.695959  4 H  dxz        
    69      0.650994  4 H  px                72     -0.600424  4 H  px         
     8     -0.508559  1 C  px                56     -0.487879  3 H  pz         
    59      0.480745  3 H  pz                28     -0.468868  1 C  fxxz       
    33     -0.451625  1 C  fyyz               9     -0.428968  1 C  py         

 Vector   59  Occ=0.000000D+00  E= 3.960630D+00
              MO Center= -4.3D-01,  8.3D-02, -2.3D-01, r^2= 1.4D+00
   Bfn.  Coefficient  Atom+Function         Bfn.  Coefficient  Atom+Function  
  ----- ------------  ---------------      ----- ------------  ---------------
     8      6.377737  1 C  px                 4      3.392690  1 C  s          
    26     -3.096638  1 C  fxxx              10      2.912656  1 C  pz         
    31     -2.884175  1 C  fxzz              29     -2.481036  1 C  fxyy       
    25     -2.425805  1 C  dzz               23     -2.388259  1 C  dyy        
     3     -2.298364  1 C  s                  9     -2.197439  1 C  py         

 Vector   60  Occ=0.000000D+00  E= 4.059331D+00
              MO Center= -3.3D-01,  1.2D-01, -1.5D-01, r^2= 1.9D+00
   Bfn.  Coefficient  Atom+Function         Bfn.  Coefficient  Atom+Function  
  ----- ------------  ---------------      ----- ------------  ---------------
    79      0.975046  4 H  dyz               62     -0.581919  3 H  dxz        
    73      0.568322  4 H  py                34     -0.526612  1 C  fyzz       
    49     -0.520142  2 H  dyz               59     -0.500724  3 H  pz         
    44      0.459630  2 H  pz                64     -0.454977  3 H  dyz        
    46      0.451936  2 H  dxy               30      0.436712  1 C  fxyz       

 Vector   61  Occ=0.000000D+00  E= 4.158397D+00
              MO Center= -2.0D-01,  7.3D-02, -8.7D-02, r^2= 1.6D+00
   Bfn.  Coefficient  Atom+Function         Bfn.  Coefficient  Atom+Function  
  ----- ------------  ---------------      ----- ------------  ---------------
     8      1.919343  1 C  px                31     -1.355986  1 C  fxzz       
    29     -1.120828  1 C  fxyy              33     -1.015455  1 C  fyyz       
    30     -1.009012  1 C  fxyz              26     -0.852359  1 C  fxxx       
    10      0.848107  1 C  pz                37     -0.777078  2 H  s          
    52     -0.776667  3 H  s                 67     -0.776667  4 H  s          

 Vector   62  Occ=0.000000D+00  E= 4.278018D+00
              MO Center= -2.8D-01,  1.0D-01, -1.2D-01, r^2= 1.6D+00
   Bfn.  Coefficient  Atom+Function         Bfn.  Coefficient  Atom+Function  
  ----- ------------  ---------------      ----- ------------  ---------------
    52      0.878547  3 H  s                 67      0.878547  4 H  s          
    37      0.872375  2 H  s                 29      0.846847  1 C  fxyy       
    64     -0.838625  3 H  dyz               49      0.821376  2 H  dyz        
     2      0.808755  1 C  s                  3     -0.774503  1 C  s          
    78     -0.724965  4 H  dyy               77     -0.707067  4 H  dxz        

 Vector   63  Occ=0.000000D+00  E= 4.335358D+00
              MO Center= -2.9D-01, -1.5D-01, -2.7D-01, r^2= 1.6D+00
   Bfn.  Coefficient  Atom+Function         Bfn.  Coefficient  Atom+Function  
  ----- ------------  ---------------      ----- ------------  ---------------
    52      2.508297  3 H  s                 67     -2.508282  4 H  s          
    75      0.961558  4 H  dxx               31      0.874861  1 C  fxzz       
    78      0.863314  4 H  dyy               65     -0.833171  3 H  dzz        
    60     -0.795004  3 H  dxx               63     -0.691040  3 H  dyy        
    61      0.607906  3 H  dxy               74     -0.559394  4 H  pz         

 Vector   64  Occ=0.000000D+00  E= 4.335476D+00
              MO Center= -2.4D-01,  3.5D-01,  3.3D-02, r^2= 1.6D+00
   Bfn.  Coefficient  Atom+Function         Bfn.  Coefficient  Atom+Function  
  ----- ------------  ---------------      ----- ------------  ---------------
    37      2.897930  2 H  s                 52     -1.447862  3 H  s          
    67     -1.447888  4 H  s                 45     -1.083037  2 H  dxx        
    50     -0.946652  2 H  dzz               34     -0.745791  1 C  fyzz       
    62      0.712205  3 H  dxz               75      0.653036  4 H  dxx        
    48     -0.649260  2 H  dyy               79      0.643268  4 H  dyz        

 Vector   65  Occ=0.000000D+00  E= 4.756997D+00
              MO Center= -1.9D-01,  3.2D-01,  4.7D-02, r^2= 1.6D+00
   Bfn.  Coefficient  Atom+Function         Bfn.  Coefficient  Atom+Function  
  ----- ------------  ---------------      ----- ------------  ---------------
    37      1.541376  2 H  s                 49      1.282629  2 H  dyz        
    29      1.092493  1 C  fxyy              43     -1.008647  2 H  py         
    27     -0.945816  1 C  fxxy              45     -0.858269  2 H  dxx        
    52     -0.768988  3 H  s                 67     -0.769052  4 H  s          
    79     -0.768710  4 H  dyz               61     -0.722833  3 H  dxy        

 Vector   66  Occ=0.000000D+00  E= 4.757115D+00
              MO Center= -2.4D-01, -1.6D-01, -2.4D-01, r^2= 1.6D+00
   Bfn.  Coefficient  Atom+Function         Bfn.  Coefficient  Atom+Function  
  ----- ------------  ---------------      ----- ------------  ---------------
    52      1.334572  3 H  s                 67     -1.334535  4 H  s          
    31     -1.172439  1 C  fxzz              30      1.088895  1 C  fxyz       
    77      1.067438  4 H  dxz               64     -0.947549  3 H  dyz        
    74     -0.934647  4 H  pz                61      0.820612  3 H  dxy        
    62     -0.766799  3 H  dxz               78      0.694769  4 H  dyy        

 Vector   67  Occ=0.000000D+00  E= 4.810670D+00
              MO Center= -2.3D-01,  8.6D-02, -1.0D-01, r^2= 1.5D+00
   Bfn.  Coefficient  Atom+Function         Bfn.  Coefficient  Atom+Function  
  ----- ------------  ---------------      ----- ------------  ---------------
    30      1.308311  1 C  fxyz               3      1.188056  1 C  s          
    46      1.189907  2 H  dxy               37     -1.123878  2 H  s          
    52     -1.124231  3 H  s                 67     -1.124231  4 H  s          
    77     -0.986699  4 H  dxz               31      0.949140  1 C  fxzz       
    33      0.879462  1 C  fyyz              28     -0.774574  1 C  fxxz       

 Vector   68  Occ=0.000000D+00  E= 4.968967D+00
              MO Center= -2.1D-01,  3.3D-01,  4.1D-02, r^2= 1.3D+00
   Bfn.  Coefficient  Atom+Function         Bfn.  Coefficient  Atom+Function  
  ----- ------------  ---------------      ----- ------------  ---------------
     9      2.770273  1 C  py                37     -2.306123  2 H  s          
    27     -1.913580  1 C  fxxy              29      1.807401  1 C  fxyy       
    10      1.685598  1 C  pz                46      1.551581  2 H  dxy        
    43      1.335953  2 H  py                52      1.154596  3 H  s          
    67      1.154758  4 H  s                 24      0.977095  1 C  dyz        

 Vector   69  Occ=0.000000D+00  E= 4.969158D+00
              MO Center= -2.6D-01, -1.5D-01, -2.5D-01, r^2= 1.3D+00
   Bfn.  Coefficient  Atom+Function         Bfn.  Coefficient  Atom+Function  
  ----- ------------  ---------------      ----- ------------  ---------------
    10      2.493197  1 C  pz                52     -2.000882  3 H  s          
    67      2.000789  4 H  s                 31     -1.620229  1 C  fxzz       
     8     -1.604936  1 C  px                 9     -1.353372  1 C  py         
    74      1.277283  4 H  pz                57     -1.254743  3 H  px         
    77      1.185666  4 H  dxz               26      1.168403  1 C  fxxx       

 Vector   70  Occ=0.000000D+00  E= 5.131518D+00
              MO Center= -2.0D-01,  7.8D-02, -8.5D-02, r^2= 1.4D+00
   Bfn.  Coefficient  Atom+Function         Bfn.  Coefficient  Atom+Function  
  ----- ------------  ---------------      ----- ------------  ---------------
    33      1.598139  1 C  fyyz               3     -1.339070  1 C  s          
    31      0.948957  1 C  fxzz              30      0.944154  1 C  fxyz       
    80      0.836801  4 H  dzz               61      0.792502  3 H  dxy        
    48      0.744128  2 H  dyy               49      0.710482  2 H  dyz        
    74      0.639219  4 H  pz                20     -0.618959  1 C  dxx        

 Vector   71  Occ=0.000000D+00  E= 5.164464D+00
              MO Center= -2.2D-01,  1.4D-01, -6.2D-02, r^2= 1.4D+00
   Bfn.  Coefficient  Atom+Function         Bfn.  Coefficient  Atom+Function  
  ----- ------------  ---------------      ----- ------------  ---------------
    33      2.023486  1 C  fyyz              10     -1.750582  1 C  pz         
    28      1.700395  1 C  fxxz              31     -1.494814  1 C  fxzz       
     8      1.126861  1 C  px                21     -1.080412  1 C  dxy        
    24      1.072672  1 C  dyz               30     -1.067473  1 C  fxyz       
    52      1.047635  3 H  s                 67     -1.047630  4 H  s          

 Vector   72  Occ=0.000000D+00  E= 5.164889D+00
              MO Center= -2.3D-01,  1.9D-02, -1.4D-01, r^2= 1.4D+00
   Bfn.  Coefficient  Atom+Function         Bfn.  Coefficient  Atom+Function  
  ----- ------------  ---------------      ----- ------------  ---------------
    34      2.325386  1 C  fyzz               9     -1.952622  1 C  py         
    28      1.911855  1 C  fxxz              24     -1.831535  1 C  dyz        
    30      1.714364  1 C  fxyz              79     -1.294447  4 H  dyz        
    37      1.217205  2 H  s                 10     -1.184403  1 C  pz         
    22     -1.046129  1 C  dxz               27      1.006620  1 C  fxxy       

 Vector   73  Occ=0.000000D+00  E= 5.195659D+00
              MO Center= -6.2D-02,  2.1D-02, -2.8D-02, r^2= 1.3D+00
   Bfn.  Coefficient  Atom+Function         Bfn.  Coefficient  Atom+Function  
  ----- ------------  ---------------      ----- ------------  ---------------
    34      3.386030  1 C  fyzz              30     -2.812274  1 C  fxyz       
    29     -1.398750  1 C  fxyy              79     -1.255758  4 H  dyz        
    32     -1.159162  1 C  fyyy              62      1.059080  3 H  dxz        
    28     -0.946335  1 C  fxxz              31      0.947600  1 C  fxzz       
    49      0.819663  2 H  dyz               47     -0.606256  2 H  dxz        

 Vector   74  Occ=0.000000D+00  E= 5.521521D+00
              MO Center= -2.1D-01,  7.8D-02, -9.3D-02, r^2= 1.6D+00
   Bfn.  Coefficient  Atom+Function         Bfn.  Coefficient  Atom+Function  
  ----- ------------  ---------------      ----- ------------  ---------------
     8      5.378202  1 C  px                37      4.807288  2 H  s          
    52      4.802424  3 H  s                 67      4.802426  4 H  s          
    29     -3.008086  1 C  fxyy              23     -2.505870  1 C  dyy        
    25     -2.477663  1 C  dzz               10      2.374825  1 C  pz         
    26     -2.149067  1 C  fxxx               3     -2.130054  1 C  s          

 Vector   75  Occ=0.000000D+00  E= 6.062268D+00
              MO Center= -2.0D-01, -8.7D-02, -1.8D-01, r^2= 1.6D+00
   Bfn.  Coefficient  Atom+Function         Bfn.  Coefficient  Atom+Function  
  ----- ------------  ---------------      ----- ------------  ---------------
    10     12.453350  1 C  pz                52     -8.189150  3 H  s          
    67      8.189179  4 H  s                  8     -8.016248  1 C  px         
     9     -6.759196  1 C  py                74      4.008730  4 H  pz         
    25     -3.556613  1 C  dzz               33     -3.450112  1 C  fyyz       
    21      3.418118  1 C  dxy               28     -3.195617  1 C  fxxz       

 Vector   76  Occ=0.000000D+00  E= 6.062519D+00
              MO Center= -1.7D-01,  2.3D-01,  1.3D-02, r^2= 1.6D+00
   Bfn.  Coefficient  Atom+Function         Bfn.  Coefficient  Atom+Function  
  ----- ------------  ---------------      ----- ------------  ---------------
     9     13.833989  1 C  py                37     -9.439814  2 H  s          
    10      8.418300  1 C  pz                52      4.721432  3 H  s          
    67      4.721379  4 H  s                 21     -4.192652  1 C  dxy        
    43      4.207156  2 H  py                34     -3.788105  1 C  fyzz       
    24      3.246506  1 C  dyz               28     -2.999716  1 C  fxxz       

 Vector   77  Occ=0.000000D+00  E= 6.658270D+00
              MO Center= -1.1D-01,  3.8D-02, -5.0D-02, r^2= 1.5D+00
   Bfn.  Coefficient  Atom+Function         Bfn.  Coefficient  Atom+Function  
  ----- ------------  ---------------      ----- ------------  ---------------
    10     13.326620  1 C  pz                 8     -8.574175  1 C  px         
     9     -7.221869  1 C  py                52     -7.063405  3 H  s          
    67      7.068112  4 H  s                 35     -5.135253  1 C  fzzz       
    28     -4.774997  1 C  fxxz              33     -4.706208  1 C  fyyz       
    29      3.447128  1 C  fxyy              26      3.147424  1 C  fxxx       

 Vector   78  Occ=0.000000D+00  E= 6.658307D+00
              MO Center= -1.1D-01,  4.3D-02, -4.7D-02, r^2= 1.5D+00
   Bfn.  Coefficient  Atom+Function         Bfn.  Coefficient  Atom+Function  
  ----- ------------  ---------------      ----- ------------  ---------------
     9     14.842314  1 C  py                10      9.023162  1 C  pz         
    37     -8.165451  2 H  s                 32     -5.651691  1 C  fyyy       
    27     -5.473648  1 C  fxxy              34     -5.274496  1 C  fyzz       
    52      4.090811  3 H  s                 67      4.082672  4 H  s          
    33     -3.583759  1 C  fyyz              35     -3.435748  1 C  fzzz       

 Vector   79  Occ=0.000000D+00  E= 7.867463D+00
              MO Center=  3.5D-02, -1.3D-02,  1.5D-02, r^2= 8.3D-01
   Bfn.  Coefficient  Atom+Function         Bfn.  Coefficient  Atom+Function  
  ----- ------------  ---------------      ----- ------------  ---------------
     2      8.984322  1 C  s                  4      4.664207  1 C  s          
    17     -3.757707  1 C  dyy               19     -3.743383  1 C  dzz        
    14     -3.541532  1 C  dxx                1      3.200856  1 C  s          
    23     -2.980950  1 C  dyy               25     -2.973597  1 C  dzz        
    20     -2.891759  1 C  dxx                3     -0.637586  1 C  s          

 Vector   80  Occ=0.000000D+00  E= 1.510829D+01
              MO Center= -1.1D-01,  4.2D-02, -5.0D-02, r^2= 1.9D+00
   Bfn.  Coefficient  Atom+Function         Bfn.  Coefficient  Atom+Function  
  ----- ------------  ---------------      ----- ------------  ---------------
     2     20.241867  1 C  s                  1     10.115638  1 C  s          
    37     -6.937624  2 H  s                 52     -6.952049  3 H  s          
    67     -6.952049  4 H  s                  4      5.952809  1 C  s          
     8     -5.514982  1 C  px                74     -3.655286  4 H  pz         
    43      3.335146  2 H  py                57     -2.602411  3 H  px         


                     DFT Final Beta Molecular Orbital Analysis
                     -----------------------------------------

 Vector    1  Occ=1.000000D+00  E=-1.018130D+01
              MO Center= -2.9D-05,  1.1D-05, -1.3D-05, r^2= 2.8D-02
   Bfn.  Coefficient  Atom+Function         Bfn.  Coefficient  Atom+Function  
  ----- ------------  ---------------      ----- ------------  ---------------
     1      1.003072  1 C  s                  2      0.061836  1 C  s          
     3      0.051094  1 C  s          

 Vector    2  Occ=1.000000D+00  E=-6.608097D-01
              MO Center= -1.9D-01,  7.1D-02, -8.4D-02, r^2= 9.6D-01
   Bfn.  Coefficient  Atom+Function         Bfn.  Coefficient  Atom+Function  
  ----- ------------  ---------------      ----- ------------  ---------------
     2      0.403743  1 C  s                  4      0.189838  1 C  s          
     3      0.112810  1 C  s                 36      0.100597  2 H  s          
    51      0.100661  3 H  s                 66      0.100661  4 H  s          
    37      0.099911  2 H  s                 52      0.099961  3 H  s          
    67      0.099961  4 H  s                  8     -0.050333  1 C  px         

 Vector    3  Occ=1.000000D+00  E=-4.007726D-01
              MO Center= -1.4D-01,  2.7D-01,  5.9D-02, r^2= 1.2D+00
   Bfn.  Coefficient  Atom+Function         Bfn.  Coefficient  Atom+Function  
  ----- ------------  ---------------      ----- ------------  ---------------
    37      0.285404  2 H  s                  6      0.224050  1 C  py         
    36      0.176848  2 H  s                  9      0.171659  1 C  py         
    52     -0.142671  3 H  s                 67     -0.142667  4 H  s          
     7      0.136325  1 C  pz                38      0.131568  2 H  s          
    12      0.111488  1 C  py                10      0.104446  1 C  pz         

 Vector    4  Occ=1.000000D+00  E=-4.007592D-01
              MO Center= -1.8D-01, -1.5D-01, -2.0D-01, r^2= 1.2D+00
   Bfn.  Coefficient  Atom+Function         Bfn.  Coefficient  Atom+Function  
  ----- ------------  ---------------      ----- ------------  ---------------
    52      0.247160  3 H  s                 67     -0.247162  4 H  s          
     7      0.201402  1 C  pz                10      0.154296  1 C  pz         
    51      0.153158  3 H  s                 66     -0.153160  4 H  s          
     5     -0.129643  1 C  px                53      0.113930  3 H  s          
    68     -0.113931  4 H  s                  6     -0.109312  1 C  py         

 Vector    5  Occ=0.000000D+00  E=-9.324994D-02
              MO Center=  1.8D-01, -6.6D-02,  7.9D-02, r^2= 1.5D+00
   Bfn.  Coefficient  Atom+Function         Bfn.  Coefficient  Atom+Function  
  ----- ------------  ---------------      ----- ------------  ---------------
    11      0.454132  1 C  px                 4      0.371627  1 C  s          
     5      0.252930  1 C  px                13      0.200853  1 C  pz         
    12     -0.168533  1 C  py                 8      0.156384  1 C  px         
     2      0.147343  1 C  s                  7      0.111861  1 C  pz         
     6     -0.093872  1 C  py                10      0.069167  1 C  pz         

 Vector    6  Occ=0.000000D+00  E= 4.986843D-02
              MO Center= -4.0D-01,  1.5D-01, -1.7D-01, r^2= 5.5D+00
   Bfn.  Coefficient  Atom+Function         Bfn.  Coefficient  Atom+Function  
  ----- ------------  ---------------      ----- ------------  ---------------
     4      3.678360  1 C  s                 38     -1.370339  2 H  s          
    53     -1.370332  3 H  s                 68     -1.370332  4 H  s          
    11     -0.522617  1 C  px                20     -0.290182  1 C  dxx        
     2      0.255840  1 C  s                 25     -0.243911  1 C  dzz        
    23     -0.240618  1 C  dyy               13     -0.231144  1 C  pz         

 Vector    7  Occ=0.000000D+00  E= 1.196567D-01
              MO Center= -4.1D-01,  8.5D-01,  2.0D-01, r^2= 4.5D+00
   Bfn.  Coefficient  Atom+Function         Bfn.  Coefficient  Atom+Function  
  ----- ------------  ---------------      ----- ------------  ---------------
    38      2.535017  2 H  s                 53     -1.268177  3 H  s          
    68     -1.268184  4 H  s                 12     -1.229894  1 C  py         
    13     -0.748413  1 C  pz                 9     -0.209186  1 C  py         
     6     -0.177815  1 C  py                10     -0.127301  1 C  pz         
    11     -0.125625  1 C  px                 7     -0.108188  1 C  pz         

 Vector    8  Occ=0.000000D+00  E= 1.196802D-01
              MO Center= -5.4D-01, -5.0D-01, -6.2D-01, r^2= 4.5D+00
   Bfn.  Coefficient  Atom+Function         Bfn.  Coefficient  Atom+Function  
  ----- ------------  ---------------      ----- ------------  ---------------
    53      2.196255  3 H  s                 68     -2.196250  4 H  s          
    13     -1.105503  1 C  pz                11      0.711617  1 C  px         
    12      0.600032  1 C  py                10     -0.188076  1 C  pz         
     7     -0.159809  1 C  pz                 8      0.121065  1 C  px         
     5      0.102870  1 C  px                 9      0.102082  1 C  py         

 Vector    9  Occ=0.000000D+00  E= 2.365567D-01
              MO Center=  2.1D-01,  2.5D-01,  2.7D-01, r^2= 3.4D+00
   Bfn.  Coefficient  Atom+Function         Bfn.  Coefficient  Atom+Function  
  ----- ------------  ---------------      ----- ------------  ---------------
    13      1.577551  1 C  pz                52     -1.566357  3 H  s          
    67      1.566324  4 H  s                 11     -1.015492  1 C  px         
    12     -0.856284  1 C  py                53     -0.373170  3 H  s          
    68      0.373162  4 H  s                 25     -0.269302  1 C  dzz        
    21      0.255999  1 C  dxy               74      0.232663  4 H  pz         

 Vector   10  Occ=0.000000D+00  E= 2.365840D-01
              MO Center=  1.4D-01, -3.8D-01, -1.1D-01, r^2= 3.4D+00
   Bfn.  Coefficient  Atom+Function         Bfn.  Coefficient  Atom+Function  
  ----- ------------  ---------------      ----- ------------  ---------------
    37     -1.808589  2 H  s                 12      1.755376  1 C  py         
    13      1.068192  1 C  pz                52      0.904218  3 H  s          
    67      0.904276  4 H  s                 38     -0.430629  2 H  s          
    21     -0.330612  1 C  dxy               43      0.245905  2 H  py         
    24      0.230817  1 C  dyz               23      0.214795  1 C  dyy        

 Vector   11  Occ=0.000000D+00  E= 3.216329D-01
              MO Center=  2.3D-01, -8.7D-02,  1.0D-01, r^2= 3.2D+00
   Bfn.  Coefficient  Atom+Function         Bfn.  Coefficient  Atom+Function  
  ----- ------------  ---------------      ----- ------------  ---------------
     4      1.186162  1 C  s                 11      1.165914  1 C  px         
     8     -1.096649  1 C  px                20     -0.539088  1 C  dxx        
    37      0.524427  2 H  s                 52      0.524444  3 H  s          
    67      0.524444  4 H  s                 23     -0.519281  1 C  dyy        
    25     -0.520635  1 C  dzz               13      0.515795  1 C  pz         

 Vector   12  Occ=0.000000D+00  E= 3.746818D-01
              MO Center= -3.0D-01,  1.1D-01, -1.3D-01, r^2= 3.3D+00
   Bfn.  Coefficient  Atom+Function         Bfn.  Coefficient  Atom+Function  
  ----- ------------  ---------------      ----- ------------  ---------------
     4      8.397988  1 C  s                 37     -1.282143  2 H  s          
    52     -1.283827  3 H  s                 67     -1.283827  4 H  s          
    38     -1.174955  2 H  s                 53     -1.178158  3 H  s          
    68     -1.178157  4 H  s                 20     -1.165838  1 C  dxx        
    23     -1.153331  1 C  dyy               25     -1.153702  1 C  dzz        

 Vector   13  Occ=0.000000D+00  E= 4.360365D-01
              MO Center= -4.1D-01,  1.5D-01, -1.8D-01, r^2= 4.2D+00
   Bfn.  Coefficient  Atom+Function         Bfn.  Coefficient  Atom+Function  
  ----- ------------  ---------------      ----- ------------  ---------------
     4      7.824057  1 C  s                 38     -1.841375  2 H  s          
    53     -1.834104  3 H  s                 68     -1.834103  4 H  s          
    20     -1.132842  1 C  dxx               11     -0.981840  1 C  px         
    25     -0.864208  1 C  dzz                3     -0.851297  1 C  s          
    23     -0.843512  1 C  dyy               74     -0.474901  4 H  pz         

 Vector   14  Occ=0.000000D+00  E= 4.654373D-01
              MO Center= -1.7D-01,  4.3D-01,  1.2D-01, r^2= 3.8D+00
   Bfn.  Coefficient  Atom+Function         Bfn.  Coefficient  Atom+Function  
  ----- ------------  ---------------      ----- ------------  ---------------
    38      2.885567  2 H  s                 12     -2.311618  1 C  py         
    53     -1.447095  3 H  s                 68     -1.447156  4 H  s          
    13     -1.407466  1 C  pz                43     -0.736982  2 H  py         
    21      0.704697  1 C  dxy               24     -0.707259  1 C  dyz        
    23     -0.520631  1 C  dyy               37      0.510347  2 H  s          

 Vector   15  Occ=0.000000D+00  E= 4.654798D-01
              MO Center= -2.5D-01, -2.8D-01, -3.1D-01, r^2= 3.8D+00
   Bfn.  Coefficient  Atom+Function         Bfn.  Coefficient  Atom+Function  
  ----- ------------  ---------------      ----- ------------  ---------------
    53      2.501873  3 H  s                 68     -2.501839  4 H  s          
    13     -2.078085  1 C  pz                11      1.337685  1 C  px         
    12      1.127951  1 C  py                74     -0.705798  4 H  pz         
    25      0.667475  1 C  dzz               21     -0.659908  1 C  dxy        
    58      0.535892  3 H  py                57      0.460068  3 H  px         

[...]
        1           2           3                 1           2           3
      1.6929      1.6929      3.2928           227.1755    227.1759    441.8575

1     0.0866     -0.4924      0.8660
2     0.8509     -0.4156     -0.3214
3     0.5182      0.7647      0.3830



      Atom:    2  H 

 ----- A-tensor in atomic units ----         ------------- A (MHz) ------------

 FC, SD terms:
  isotropic    A(au)     -0.0333                           A(MHz)    -17.7411
     -0.0498     -0.0269      0.0176           -26.5513    -14.3353      9.4138
     -0.0269      0.0143      0.0446           -14.3353      7.6075     23.8113
      0.0176      0.0446     -0.0642             9.4138     23.8113    -34.2795

 PSO-Spin-Orbit terms:
  isotropic    A(au)     -0.0000                           A(MHz)     -0.0000
     -0.0000     -0.0000     -0.0000            -0.0000     -0.0000     -0.0000
     -0.0000     -0.0000     -0.0000            -0.0000     -0.0000     -0.0000
     -0.0000     -0.0000     -0.0000            -0.0000     -0.0000     -0.0000

 Total hyperfine coupling tensor:
  isotropic    A(au)     -0.0333                           A(MHz)    -17.7411
     -0.0498     -0.0269      0.0176           -26.5513    -14.3353      9.4138
     -0.0269      0.0143      0.0446           -14.3353      7.6075     23.8113
      0.0176      0.0446     -0.0642             9.4138     23.8113    -34.2795

 In principal axis representation: total span,skew and asymm
        span        skew       asymm               span        skew       asymm
      0.1379      0.1030      0.8672            73.5705     54.9609    462.7038

 Principal Components and Axis System
        1           2           3                 1           2           3
     -0.0998     -0.0380      0.0381           -53.2632    -20.2672     20.3073

1    -0.4924      0.8457     -0.2057
2    -0.4152     -0.0206      0.9095
3     0.7650      0.5332      0.3613



      Atom:    3  H 

 ----- A-tensor in atomic units ----         ------------- A (MHz) ------------

 FC, SD terms:
  isotropic    A(au)     -0.0333                           A(MHz)    -17.7541
      0.0008      0.0408     -0.0053             0.4322     21.7853     -2.8183
      0.0408     -0.0248     -0.0394            21.7853    -13.2245    -21.0388
     -0.0053     -0.0394     -0.0759            -2.8183    -21.0388    -40.4702

 PSO-Spin-Orbit terms:
  isotropic    A(au)     -0.0000                           A(MHz)     -0.0000
     -0.0000     -0.0000     -0.0000            -0.0000     -0.0000     -0.0000
     -0.0000     -0.0000     -0.0000            -0.0000     -0.0000     -0.0000
     -0.0000     -0.0000     -0.0000            -0.0000     -0.0000     -0.0000

 Total hyperfine coupling tensor:
  isotropic    A(au)     -0.0333                           A(MHz)    -17.7541
      0.0008      0.0408     -0.0053             0.4322     21.7853     -2.8183
      0.0408     -0.0248     -0.0394            21.7853    -13.2245    -21.0388
     -0.0053     -0.0394     -0.0759            -2.8183    -21.0388    -40.4702

 In principal axis representation: total span,skew and asymm
        span        skew       asymm               span        skew       asymm
      0.1379      0.1027      0.8676            73.5950     54.7960    462.9094

 Principal Components and Axis System
        1           2           3                 1           2           3
     -0.0999     -0.0380      0.0381           -53.2919    -20.2736     20.3030

1    -0.1711     -0.6608      0.7308
2     0.5293      0.5640      0.6338
3     0.8310     -0.4953     -0.2533



      Atom:    4  H 

 ----- A-tensor in atomic units ----         ------------- A (MHz) ------------

 FC, SD terms:
  isotropic    A(au)     -0.0333                           A(MHz)    -17.7541
     -0.0440     -0.0185     -0.0069           -23.4657     -9.8940     -3.6722
     -0.0185     -0.0931     -0.0072            -9.8940    -49.6565     -3.8499
     -0.0069     -0.0072      0.0372            -3.6722     -3.8499     19.8598

 PSO-Spin-Orbit terms:
  isotropic    A(au)     -0.0000                           A(MHz)     -0.0000
     -0.0000     -0.0000     -0.0000            -0.0000     -0.0000     -0.0000
     -0.0000     -0.0000     -0.0000            -0.0000     -0.0000     -0.0000
     -0.0000     -0.0000     -0.0000            -0.0000     -0.0000     -0.0000

 Total hyperfine coupling tensor:
  isotropic    A(au)     -0.0333                           A(MHz)    -17.7541
     -0.0440     -0.0185     -0.0069           -23.4657     -9.8940     -3.6722
     -0.0185     -0.0931     -0.0072            -9.8940    -49.6565     -3.8499
     -0.0069     -0.0072      0.0372            -3.6722     -3.8499     19.8598

 In principal axis representation: total span,skew and asymm
        span        skew       asymm               span        skew       asymm
      0.1379      0.1027      0.8676            73.5944     54.7871    462.9205

 Principal Components and Axis System
        1           2           3                 1           2           3
     -0.0999     -0.0380      0.0381           -53.2919    -20.2731     20.3026

1     0.3215      0.9441     -0.0735
2     0.9446     -0.3251     -0.0444
3     0.0659      0.0552      0.9963




            Scalar ZORA NMR Shielding
            -------------------------


          -----------------------------------------
          Chemical Shielding Tensors (GIAO, in ppm)
          -----------------------------------------


 Read ZORA NMR data from ./ch3radical_rot.zora_nmrcs

                                NWChem CPHF Module
                                ------------------


  scftype          =     UHF 
  nalpha           =        5
  nbeta            =        4
  variables        =      679
  # of vectors     =        3
  tolerance        = 0.10D-03
  level shift      = 0.00D+00
  max iterations   =       50
  max subspace     =       30


 Integral file          = ./ch3radical_rot.aoints.0
 Record size in doubles =  65536        No. of integs per rec  =  43688
 Max. records in memory =     85        Max. records in file   = 921142
 No. of bits per label  =      8        No. of bits per value  =     64


 #quartets = 8.262D+04 #integrals = 5.516D+06 #direct =  0.0% #cached =100.0%


File balance: exchanges=     0  moved=     0  time=   0.0

 SCF residual:    8.9910038857357400E-006


Iterative solution of linear equations
  No. of variables      679
  No. of equations        3
  Maximum subspace       30
        Iterations       50
       Convergence  1.0D-04
        Start time     25.8


   iter   nsub   residual    time
   ----  ------  --------  ---------
     1      3    3.41D-01      26.7
     2      6    7.45D-03      27.7
     3      9    5.29D-04      28.6
     4     12    2.13D-05      29.6

 Parallel integral file used     127 records with       0 large values


 Wrote CPHF data to ./ch3radical_rot.shieldcphf

 Calc. par tensor-> zora
      Atom:    1  C 
        Diamagnetic
    242.7352      3.6617     -4.3652
      3.6617    251.2444      1.6190
     -4.3652      1.6190    250.6729

        Paramagnetic
   -101.5197    -49.8303     59.3557
    -49.8303   -217.2701    -22.0480
     59.3557    -22.0480   -209.5053

        Total Shielding Tensor
    141.2155    -46.1687     54.9905
    -46.1687     33.9742    -20.4290
     54.9905    -20.4290     41.1677

           isotropic =      72.1191
          anisotropy =     165.8298

          Principal Components and Axis System
                 1           2           3
              182.6724     16.8582     16.8268

      1         0.8660     -0.4924      0.0869
      2        -0.3215     -0.4152      0.8510
      3         0.3830      0.7650      0.5179



      Atom:    2  H 
        Diamagnetic
     26.1337     -1.5376     -0.9748
     -1.5376     36.2669      4.3919
     -0.9748      4.3919     28.1079

        Paramagnetic
      2.4687      0.7854      0.7915
      0.7854    -10.2774     -6.1046
      0.7915     -6.1046     -0.9026

        Total Shielding Tensor
     28.6024     -0.7523     -0.1833
     -0.7523     25.9895     -1.7127
     -0.1833     -1.7127     27.2053

           isotropic =      27.2657
          anisotropy =       2.4457

          Principal Components and Axis System
                 1           2           3
               28.8962     28.2529     24.6481

      1         0.8515     -0.4924      0.1801
      2        -0.4117     -0.4152      0.8112
      3         0.3247      0.7650      0.5563



      Atom:    3  H 
        Diamagnetic
     31.6528      5.7813     -2.5928
      5.7813     31.6574     -2.1869
     -2.5928     -2.1869     27.2155

        Paramagnetic
     -3.3643     -7.0175      3.3863
     -7.0175     -5.7623      3.4367
      3.3863      3.4367      0.4093

        Total Shielding Tensor
     28.2885     -1.2362      0.7935
     -1.2362     25.8951      1.2497
      0.7935      1.2497     27.6248

           isotropic =      27.2694
          anisotropy =       2.4462

          Principal Components and Axis System
                 1           2           3
               28.9003     28.2572     24.6508

      1         0.9117     -0.1709      0.3736
      2        -0.2349      0.5292      0.8154
      3         0.3370      0.8311     -0.4423



      Atom:    4  H 
        Diamagnetic
     26.0353      0.2320     -1.7639
      0.2320     26.2930     -0.2255
     -1.7639     -0.2255     38.1974

        Paramagnetic
      1.8430     -0.2248      3.5128
     -0.2248      1.9906     -0.1882
      3.5128     -0.1882    -12.5509

        Total Shielding Tensor
     27.8783      0.0072      1.7488
      0.0072     28.2836     -0.4138
      1.7488     -0.4138     25.6465

           isotropic =      27.2694
          anisotropy =       2.4462

          Principal Components and Axis System
                 1           2           3
               28.9003     28.2572     24.6508

      1         0.8195      0.3217     -0.4742
      2        -0.3126      0.9445      0.1006
      3         0.4802      0.0658      0.8747




                  ZORA g-Shift
                  ------------


             g-Shift Tensor (in ppm)
             -----------------------


 Read ZORA NMR data from ./ch3radical_rot.zora_nmrgshift


 Read ZORA NMR data from ./ch3radical_rot.zora_nmrgshift_AB

nocc=(  5,  4) nclos=(  0,  0) nvirt=( 75, 76) scftyp=UHF)
 coeffpol=   4.0000000000000000     
                                NWChem CPHF Module
                                ------------------


  scftype          =     UHF 
  nalpha           =        5
  nbeta            =        4
  variables        =      679
  # of vectors     =        3
  tolerance        = 0.10D-03
  level shift      = 0.00D+00
  max iterations   =       50
  max subspace     =       30


 Integral file          = ./ch3radical_rot.aoints.0
 Record size in doubles =  65536        No. of integs per rec  =  43688
 Max. records in memory =     85        Max. records in file   = 921142
 No. of bits per label  =      8        No. of bits per value  =     64


 #quartets = 8.262D+04 #integrals = 5.516D+06 #direct =  0.0% #cached =100.0%


File balance: exchanges=     0  moved=     0  time=   0.0

 SCF residual:    8.9910038834425508E-006


Iterative solution of linear equations
  No. of variables      679
  No. of equations        3
  Maximum subspace       30
        Iterations       50
       Convergence  1.0D-04
        Start time     34.4


   iter   nsub   residual    time
   ----  ------  --------  ---------
     1      3    3.41D-01      35.4
     2      6    7.45D-03      36.4
     3      9    5.29D-04      37.3
     4     12    2.13D-05      38.3

 Parallel integral file used     128 records with       0 large values


 Wrote CPHF data to ./ch3radical_rot.zora_gshiftcphf

NW-1:(dia,gauge,OO,OV,Totpar)(1,1)=(   -0.882263    -0.002082     0.220596    -0.346207    -0.127693 )
NW-1:(dia,gauge,OO,OV,Totpar)(1,2)=(    0.010256     0.000535    -0.011800     0.024057     0.012792 )
NW-1:(dia,gauge,OO,OV,Totpar)(1,3)=(   -0.012225    -0.000636     0.014052    -0.028690    -0.015274 )
NW-1:(dia,gauge,OO,OV,Totpar)(2,1)=(    0.010256     0.000535    -0.011789     0.024045     0.012792 )
NW-1:(dia,gauge,OO,OV,Totpar)(2,2)=(   -0.858431    -0.000841     0.193195    -0.290231    -0.097878 )
NW-1:(dia,gauge,OO,OV,Totpar)(2,3)=(    0.004535     0.000236    -0.005212     0.010659     0.005683 )
NW-1:(dia,gauge,OO,OV,Totpar)(3,1)=(   -0.012225    -0.000636     0.014058    -0.028696    -0.015274 )
NW-1:(dia,gauge,OO,OV,Totpar)(3,2)=(    0.004535     0.000236    -0.005219     0.010666     0.005684 )
NW-1:(dia,gauge,OO,OV,Totpar)(3,3)=(   -0.860031    -0.000924     0.195032    -0.294035    -0.099926 )
NW-2:(dia,gauge,OO,OV,Totpar)(1,1)=(   -0.858578    -0.002678     0.181870    -0.510836    -0.331644 )
NW-2:(dia,gauge,OO,OV,Totpar)(1,2)=(    0.005526     0.000683    -0.063937    -0.151540    -0.214795 )
NW-2:(dia,gauge,OO,OV,Totpar)(1,3)=(   -0.006584    -0.000812     0.076177     0.180524     0.255889 )
NW-2:(dia,gauge,OO,OV,Totpar)(2,1)=(    0.005526     0.000683    -0.063941    -0.151539    -0.214798 )
NW-2:(dia,gauge,OO,OV,Totpar)(2,2)=(   -0.845743    -0.001094     0.033352    -0.862944    -0.830686 )
NW-2:(dia,gauge,OO,OV,Totpar)(2,3)=(    0.002442     0.000302    -0.028277    -0.067089    -0.095064 )
NW-2:(dia,gauge,OO,OV,Totpar)(3,1)=(   -0.006584    -0.000812     0.076175     0.180524     0.255887 )
NW-2:(dia,gauge,OO,OV,Totpar)(3,2)=(    0.002442     0.000302    -0.028274    -0.067090    -0.095062 )
NW-2:(dia,gauge,OO,OV,Totpar)(3,3)=(   -0.846602    -0.001200     0.043305    -0.839269    -0.797164 )
NW-T:(dia,gauge,OO,OV,Totpar)(1,1)=(   -0.023686     0.000596     0.038726     0.164629     0.203951 )
NW-T:(dia,gauge,OO,OV,Totpar)(1,2)=(    0.004730    -0.000148     0.052137     0.175597     0.227587 )
NW-T:(dia,gauge,OO,OV,Totpar)(1,3)=(   -0.005640     0.000176    -0.062125    -0.209213    -0.271163 )
NW-T:(dia,gauge,OO,OV,Totpar)(2,1)=(    0.004730    -0.000148     0.052152     0.175585     0.227589 )
NW-T:(dia,gauge,OO,OV,Totpar)(2,2)=(   -0.012689     0.000253     0.159843     0.572712     0.732808 )
NW-T:(dia,gauge,OO,OV,Totpar)(2,3)=(    0.002093    -0.000065     0.023065     0.077748     0.100747 )
NW-T:(dia,gauge,OO,OV,Totpar)(3,1)=(   -0.005640     0.000176    -0.062117    -0.209220    -0.271161 )
NW-T:(dia,gauge,OO,OV,Totpar)(3,2)=(    0.002093    -0.000065     0.023055     0.077756     0.100746 )
NW-T:(dia,gauge,OO,OV,Totpar)(3,3)=(   -0.013429     0.000276     0.151728     0.545234     0.697238 )
        Diamagnetic
     -0.0237      0.0047     -0.0056
      0.0047     -0.0127      0.0021
     -0.0056      0.0021     -0.0134

        Paramagnetic
      0.2040      0.2276     -0.2712
      0.2276      0.7328      0.1007
     -0.2712      0.1007      0.6972

        Total g shift Tensor
      0.1803      0.2323     -0.2768
      0.2323      0.7201      0.1028
     -0.2768      0.1028      0.6838

           isotropic =       0.5281
          anisotropy =       0.4175

          Principal Components and Axis System
                 1           2           3
                0.8064      0.8062     -0.0284

      1         0.0868     -0.4924      0.8660
      2         0.8511     -0.4152     -0.3214
      3         0.5178      0.7649      0.3830




 Task  times  cpu:       39.7s     wall:       36.6s


                                NWChem Input Module
                                -------------------


 Summary of allocated global arrays
-----------------------------------
  array 0 => double precision sf 1(80,80),  handle: -981 
  array 1 => double precision sf 1(80,80),  handle: -980 
  array 2 => double precision dft_zora_Hyperfine: g_AtNr(1,4),  handle: -926 


MA_summarize_allocated_blocks: starting scan ...
MA_summarize_allocated_blocks: scan completed: 0 heap blocks, 0 stack blocks
MA usage statistics:

	allocation statistics:
					      heap	     stack
					      ----	     -----
	current number of blocks	         0	         0
	maximum number of blocks	        62	        72
	current total bytes		         0	         0
	maximum total bytes		  49241256	  23765096
	maximum total K-bytes		     49242	     23766
	maximum total M-bytes		        50	        24


                                     CITATION
                                     --------
                Please cite the following reference when publishing
                           results obtained with NWChem:

          E. Apra, E. J. Bylaska, W. A. de Jong, N. Govind, K. Kowalski,
       T. P. Straatsma, M. Valiev, H. J. J. van Dam, Y. Alexeev, J. Anchell,
       V. Anisimov, F. W. Aquino, R. Atta-Fynn, J. Autschbach, N. P. Bauman,
     J. C. Becca, D. E. Bernholdt, K. Bhaskaran-Nair, S. Bogatko, P. Borowski,
         J. Boschen, J. Brabec, A. Bruner, E. Cauet, Y. Chen, G. N. Chuev,
      C. J. Cramer, J. Daily, M. J. O. Deegan, T. H. Dunning Jr., M. Dupuis,
   K. G. Dyall, G. I. Fann, S. A. Fischer, A. Fonari, H. Fruchtl, L. Gagliardi,
      J. Garza, N. Gawande, S. Ghosh, K. Glaesemann, A. W. Gotz, J. Hammond,
       V. Helms, E. D. Hermes, K. Hirao, S. Hirata, M. Jacquelin, L. Jensen,
   B. G. Johnson, H. Jonsson, R. A. Kendall, M. Klemm, R. Kobayashi, V. Konkov,
      S. Krishnamoorthy, M. Krishnan, Z. Lin, R. D. Lins, R. J. Littlefield,
      A. J. Logsdail, K. Lopata, W. Ma, A. V. Marenich, J. Martin del Campo,
   D. Mejia-Rodriguez, J. E. Moore, J. M. Mullin, T. Nakajima, D. R. Nascimento,
    J. A. Nichols, P. J. Nichols, J. Nieplocha, A. Otero-de-la-Roza, B. Palmer,
    A. Panyala, T. Pirojsirikul, B. Peng, R. Peverati, J. Pittner, L. Pollack,
   R. M. Richard, P. Sadayappan, G. C. Schatz, W. A. Shelton, D. W. Silverstein,
   D. M. A. Smith, T. A. Soares, D. Song, M. Swart, H. L. Taylor, G. S. Thomas,
            V. Tipparaju, D. G. Truhlar, K. Tsemekhman, T. Van Voorhis,
      A. Vazquez-Mayagoitia, P. Verma, O. Villa, A. Vishnu, K. D. Vogiatzis,
        D. Wang, J. H. Weare, M. J. Williamson, T. L. Windus, K. Wolinski,
        A. T. Wong, Q. Wu, C. Yang, Q. Yu, M. Zacharias, Z. Zhang, Y. Zhao,
                                and R. J. Harrison
                        "NWChem: Past, present, and future
                         J. Chem. Phys. 152, 184102 (2020)
                               doi:10.1063/5.0004997

                                      AUTHORS
                                      -------
  E. Apra, E. J. Bylaska, N. Govind, K. Kowalski, M. Valiev, D. Mejia-Rodriguez,
       A. Kunitsa, N. P. Bauman, A. Panyala, W. A. de Jong, T. P. Straatsma,
   H. J. J. van Dam, D. Wang, T. L. Windus, J. Hammond, J. Autschbach, A. Woods,
    K. Bhaskaran-Nair, J. Brabec, K. Lopata, S. A. Fischer, S. Krishnamoorthy,
     M. Jacquelin, W. Ma, M. Klemm, O. Villa, Y. Chen, V. Anisimov, F. Aquino,
     S. Hirata, M. T. Hackler, E. Hermes, L. Jensen, J. E. Moore, J. C. Becca,
      V. Konjkov, T. Risthaus, M. Malagoli, A. Marenich, A. Otero-de-la-Roza,
        J. Mullin, P. Nichols, R. Peverati, J. Pittner, Y. Zhao, P.-D. Fan,
        A. Fonari, M. J. Williamson, R. J. Harrison, J. R. Rehr, M. Dupuis,
     D. Silverstein, D. M. A. Smith, J. Nieplocha, V. Tipparaju, M. Krishnan,
     B. E. Van Kuiken, A. Vazquez-Mayagoitia, M. Swart, Q. Wu, T. Van Voorhis,
     A. A. Auer, M. Nooijen, L. D. Crosby, E. Brown, G. Cisneros, G. I. Fann,
   H. Fruchtl, J. Garza, K. Hirao, R. A. Kendall, J. A. Nichols, K. Tsemekhman,
    K. Wolinski, J. Anchell, D. E. Bernholdt, P. Borowski, T. Clark, D. Clerc,
   H. Dachsel, M. J. O. Deegan, K. Dyall, D. Elwood, E. Glendening, M. Gutowski,
   A. C. Hess, J. Jaffe, B. G. Johnson, J. Ju, R. Kobayashi, R. Kutteh, Z. Lin,
   R. Littlefield, X. Long, B. Meng, T. Nakajima, S. Niu, L. Pollack, M. Rosing,
   K. Glaesemann, G. Sandrone, M. Stave, H. Taylor, G. Thomas, J. H. van Lenthe,
                               A. T. Wong, Z. Zhang.

 Total times  cpu:       41.8s     wall:       38.3s
