 argument  1 = /home/miroi/work/projects/Molecular-and-Materials-Modeling-2026-Winter/molecular-modeling/06_HF_molecule_properties/nwchem/ccsd_properties/ccsd_geomopt_freq/HF.daug-cc-pVDZ_ccsd_geopt_freq.nw



============================== echo of input deck ==============================
echo

start molecule

title "CCSD/daug-cc-pVDZ"
charge 0

print low

geometry units angstroms print xyz
SYMMETRY c2v
F      0.0  0.0   0.0
H      0.0  0.0   0.921
end

basis
  * library d-aug-cc-pvdz
end

scf
  print low
end

# Activate the CCSD module block
ccsd
  freeze core
end

driver
  xyz HFccsd_geom
end

set ccsd:use_ccsd_omp T

task ccsd optimize
task ccsd frequencies
================================================================================


                                         
                                         


             Northwest Computational Chemistry Package (NWChem) 7.2.2
             --------------------------------------------------------


                    Environmental Molecular Sciences Laboratory
                       Pacific Northwest National Laboratory
                                Richland, WA 99352

                              Copyright (c) 1994-2022
                       Pacific Northwest National Laboratory
                            Battelle Memorial Institute

             NWChem is an open-source computational chemistry package
                        distributed under the terms of the
                      Educational Community License (ECL) 2.0
             A copy of the license is included with this distribution
                              in the LICENSE.TXT file

                                  ACKNOWLEDGMENT
                                  --------------

            This software and its documentation were developed at the
            EMSL at Pacific Northwest National Laboratory, a multiprogram
            national laboratory, operated for the U.S. Department of Energy
            by Battelle under Contract Number DE-AC05-76RL01830. Support
            for this work was provided by the Department of Energy Office
            of Biological and Environmental Research, Office of Basic
            Energy Sciences, and the Office of Advanced Scientific Computing.


           Job information
           ---------------

    hostname        = MIRO
    program         = /usr/bin/nwchem
    date            = Sat Feb 21 01:00:11 2026

    compiled        = Mon_Apr_01_11:12:32_2024
    source          = /build/nwchem-qbYJLs/nwchem-7.2.2/build-openmpi
    nwchem branch   = 7.2.2
    nwchem revision = N/A
    ga revision     = N/A
    use scalapack   = T
    input           = /home/miroi/work/projects/Molecular-and-Materials-Modeling-2026-Winter/molecular-modeling/06_HF_molecule_properties/nwchem/ccsd_properties/ccsd_geomopt_freq/HF.daug-cc-pVDZ_ccsd_geopt_freq.nw
    prefix          = molecule.
    data base       = ./molecule.db
    status          = startup
    nproc           =        5
    time left       =     -1s



           Memory information
           ------------------

    heap     =   26214400 doubles =    200.0 Mbytes
    stack    =   26214397 doubles =    200.0 Mbytes
    global   =   52428800 doubles =    400.0 Mbytes (distinct from heap & stack)
    total    =  104857597 doubles =    800.0 Mbytes
    verify   = yes
    hardfail = no 


           Directory information
           ---------------------

  0 permanent = .
  0 scratch   = .




                                NWChem Input Module
                                -------------------


                                 CCSD/daug-cc-pVDZ
                                 -----------------

 Scaling coordinates for geometry "geometry" by  1.889725989
 (inverse scale =  0.529177249)

 Turning off AUTOSYM since
 SYMMETRY directive was detected!


          ------
          auto-z
          ------
  no constraints, skipping    0.0000000000000000     
  no constraints, skipping    0.0000000000000000     


                             Geometry "geometry" -> ""
                             -------------------------

 Output coordinates in angstroms (scale by  1.889725989 to convert to a.u.)

  No.       Tag          Charge          X              Y              Z
 ---- ---------------- ---------- -------------- -------------- --------------
    1 F                    9.0000     0.00000000     0.00000000    -0.09210000
    2 H                    1.0000     0.00000000     0.00000000     0.82890000

      Atomic Mass 
      ----------- 

      F                 18.998400
      H                  1.007825


 Effective nuclear repulsion energy (a.u.)       5.1711131824

            Nuclear Dipole moment (a.u.) 
            ----------------------------
        X                 Y               Z
 ---------------- ---------------- ----------------
     0.0000000000     0.0000000000     0.0000000000

      Symmetry information
      --------------------

 Group name             C2v       
 Group number             16
 Group order               4
 No. of unique centers     2

      Symmetry unique atoms

     1    2



                                Z-matrix (autoz)
                                -------- 

 Units are Angstrom for bonds and degrees for angles

      Type          Name      I     J     K     L     M      Value
      ----------- --------  ----- ----- ----- ----- ----- ----------
    1 Stretch                  1     2                       0.92100


            XYZ format geometry
            -------------------
     2
 geometry
 F                     0.00000000     0.00000000    -0.09210000
 H                     0.00000000     0.00000000     0.82890000

 ==============================================================================
                                internuclear distances
 ------------------------------------------------------------------------------
       center one      |      center two      | atomic units |  angstroms
 ------------------------------------------------------------------------------
    2 H                |   1 F                |     1.74044  |     0.92100
 ------------------------------------------------------------------------------
                         number of included internuclear distances:          1
 ==============================================================================





 Summary of "ao basis" -> "" (cartesian)
 ------------------------------------------------------------------------------
       Tag                 Description            Shells   Functions and Types
 ---------------- ------------------------------  ------  ---------------------
 *                       d-aug-cc-pvdz                on all atoms 




                           NWChem Geometry Optimization
                           ----------------------------




                                 CCSD/daug-cc-pVDZ


  no constraints, skipping    0.0000000000000000     
 maximum gradient threshold         (gmax) =   0.000450
 rms gradient threshold             (grms) =   0.000300
 maximum cartesian step threshold   (xmax) =   0.001800
 rms cartesian step threshold       (xrms) =   0.001200
 fixed trust radius                (trust) =   0.300000
 maximum step size to saddle      (sadstp) =   0.100000
 energy precision                  (eprec) =   1.0D-07
 maximum number of steps          (nptopt) =   40
 initial hessian option           (inhess) =    0
 line search option               (linopt) =    1
 hessian update option            (modupd) =    1
 saddle point option              (modsad) =    0
 initial eigen-mode to follow     (moddir) =    0
 initial variable to follow       (vardir) =    0
 follow first negative mode     (firstneg) =    T
 apply conjugacy                    (opcg) =    F
 source of zmatrix                         =   autoz   


          -------------------
          Energy Minimization
          -------------------


 Names of Z-matrix variables 
    1         

 Variables with the same non-blank name are constrained to be equal


 Using diagonal initial Hessian 
 Scaling for Hessian diagonals: bonds = 1.00  angles = 0.25  torsions = 0.10

          --------
          Step   0
          --------
                         NWChem Numerical Gradients Module
                         ---------------------------------


 No. of totally-symmetric internal modes =   1

                      Basis "ao basis" -> "ao basis" (cartesian)
                      -----
  F (Fluorine)
  ------------
            Exponent  Coefficients 
       -------------- ---------------------------------------------------------
  1 S  1.47100000E+04  0.000721
  1 S  2.20700000E+03  0.005553
  1 S  5.02800000E+02  0.028267
  1 S  1.42600000E+02  0.106444
  1 S  4.64700000E+01  0.286814
  1 S  1.67000000E+01  0.448641
  1 S  6.35600000E+00  0.264761
  1 S  1.31600000E+00  0.015333

  2 S  1.47100000E+04 -0.000165
  2 S  2.20700000E+03 -0.001308
  2 S  5.02800000E+02 -0.006495
  2 S  1.42600000E+02 -0.026691
  2 S  4.64700000E+01 -0.073690
  2 S  1.67000000E+01 -0.170776
  2 S  6.35600000E+00 -0.112327
  2 S  1.31600000E+00  0.562814

  3 S  3.89700000E-01  1.000000

  4 S  9.86300000E-02  1.000000

  5 S  2.50000000E-02  1.000000

  6 P  2.26700000E+01  0.044878
  6 P  4.97700000E+00  0.235718
  6 P  1.34700000E+00  0.508521

  7 P  3.47100000E-01  1.000000

  8 P  8.50200000E-02  1.000000

  9 P  2.08000000E-02  1.000000

 10 D  1.64000000E+00  1.000000

 11 D  4.64000000E-01  1.000000

 12 D  1.31000000E-01  1.000000

  H (Hydrogen)
  ------------
            Exponent  Coefficients 
       -------------- ---------------------------------------------------------
  1 S  1.30100000E+01  0.019685
  1 S  1.96200000E+00  0.137977
  1 S  4.44600000E-01  0.478148

  2 S  1.22000000E-01  1.000000

  3 S  2.97400000E-02  1.000000

  4 S  7.25000000E-03  1.000000

  5 P  7.27000000E-01  1.000000

  6 P  1.41000000E-01  1.000000

  7 P  2.73000000E-02  1.000000



 Summary of "ao basis" -> "ao basis" (cartesian)
 ------------------------------------------------------------------------------
       Tag                 Description            Shells   Functions and Types
 ---------------- ------------------------------  ------  ---------------------
 F                       d-aug-cc-pvdz              12       35   5s4p3d
 H                       d-aug-cc-pvdz               7       13   4s3p


                                 NWChem SCF Module
                                 -----------------


                                 CCSD/daug-cc-pVDZ



  ao basis        = "ao basis"
  functions       =    48
  atoms           =     2
  closed shells   =     5
  open shells     =     0
  charge          =   0.00
  wavefunction    = RHF 
  input vectors   = atomic
  output vectors  = ./molecule.movecs
  use symmetry    = T
  symmetry adapt  = T


 Forming initial guess at       0.1s


 !! scf_movecs_sym_adapt:   26 vectors were symmetry contaminated

  Symmetry fudging

 !! scf_movecs_sym_adapt:   26 vectors were symmetry contaminated


 Starting SCF solution at       0.1s



       Final RHF  results 
       ------------------ 

         Total SCF energy =   -100.034425153678
      One-electron energy =   -150.444743421213
      Two-electron energy =     45.239205085127
 Nuclear repulsion energy =      5.171113182407

        Time for solution =      0.1s




                   Four-Index Transformation
                   -------------------------
          Number of basis functions:             48
          Number of shells:                      19
          Number of occupied orbitals:            5
          Number of occ. correlated orbitals:     5
          Block length:                          16
          Superscript MO index range:      1 -    5
          Subscript MO index range:        1 -   48
          MO coefficients read from:  ./molecule.movecs        
          Number of operator matrices in core:   30
          Half-transformed integrals produced

     Pass:    1     Index range:    1  -    5     Time:      0.03


 ****************************************************************************
              the segmented parallel ccsd program:    5 nodes
 ****************************************************************************




 level of theory    ccsd
 number of core         0
 number of occupied     5
 number of virtual     43
 number of deleted      0
 total functions       48
 number of shells      19
 basis label          566



   ***** ccsd parameters *****
   iprt   =     0
   convi  =  0.100E-05
   maxit  =    20
   mxvec  =     5
 memory             52424236
  Using  1 OpenMP thread(s) in CCSD
  Recompile w/ USE_OPENMP=1 to use threads in CCSD
  IO offset    20.000000000000000     
  IO error message >End of File
  file_read_ga: failing reading from ./molecule.t2
  Failed reading restart vector from ./molecule.t2
  Using MP2 initial guess vector 


-------------------------------------------------------------------------
 iter     correlation     delta       rms       T2     Non-T2      Main
             energy      energy      error      ampl     ampl      Block
                                                time     time      time
-------------------------------------------------------------------------
   1     -0.2312092713 -2.312D-01  4.041D-02     0.11     0.00     0.09
   2     -0.2357934161 -4.584D-03  3.655D-02     0.03     0.00     0.01
   3     -0.2357881611  5.255D-06  7.057D-03     0.03     0.00     0.01
   4     -0.2362927206 -5.046D-04  5.373D-04     0.04     0.00     0.02
   5     -0.2363365774 -4.386D-05  1.196D-03     0.04     0.00     0.02
   6     -0.2363333313  3.246D-06  6.387D-05     0.03     0.00     0.01
   7     -0.2363329680  3.633D-07  8.428D-05     0.04     0.00     0.02
   8     -0.2363332573 -2.893D-07  2.716D-06     0.03     0.00     0.02
   9     -0.2363329873  2.700D-07  4.335D-06     0.03     0.00     0.02
  10     -0.2363330008 -1.343D-08  2.238D-07     0.03     0.00     0.02
                  *************converged*************
-------------------------------------------------------------------------

 -----------
 CCSD Energy
 -----------
 Reference energy:            -100.034425153678256
 CCSD corr. energy:             -0.236333000754101
 Total CCSD energy:           -100.270758154432357


 --------------------------------
 Spin Component Scaled (SCS) CCSD
 --------------------------------
 Same spin contribution:                 -0.054593270672630
 Same spin scaling factor:                1.130000000000000
 Opposite spin contribution:             -0.181739730081470
 Opposite spin scaling fact.:             1.270000000000000
 SCS-CCSD correlation energy:            -0.292499853063540
 Total SCS-CCSD energy:                -100.326925006741803

 routine      calls  cpu(0)   cpu-min  cpu-ave  cpu-max   i/o 
 aoccsd          1     0.01     0.01     0.01     0.01    0.00
 iterdrv         1     0.04     0.04     0.04     0.04    0.00
 pampt          10     0.03     0.03     0.03     0.03    0.00
 t2pm           10     0.02     0.02     0.02     0.02    0.00
 sxy            10     0.05     0.04     0.05     0.07    0.00
 ints         7220     0.05     0.05     0.05     0.07    0.00
 f_write        76     0.01     0.01     0.01     0.01    0.00
 t2eri         380     0.09     0.07     0.08     0.09    0.00
 idx2          380     0.02     0.02     0.02     0.03    0.00
 idx34          10     0.00     0.00     0.00     0.00    0.00
 ht2pm          10     0.03     0.03     0.03     0.03    0.00
 itm            10     0.10     0.10     0.10     0.10    0.00
 pdiis          10     0.00     0.00     0.00     0.00    0.00
 r_read        342     0.01     0.01     0.01     0.01    0.00
 Total                 0.46     0.46     0.46     0.46    0.00
 Reference energy        -100.27075815

 Finite difference step  1.00000D-02
 Use five point formula F

                                 NWChem SCF Module
                                 -----------------


                                 CCSD/daug-cc-pVDZ



  ao basis        = "ao basis"
  functions       =    48
  atoms           =     2
  closed shells   =     5
  open shells     =     0
  charge          =   0.00
  wavefunction    = RHF 
  input vectors   = ./molecule.movecs
  output vectors  = ./molecule.movecs
  use symmetry    = T
  symmetry adapt  = T


 Forming initial guess at       0.8s


 Starting SCF solution at       0.8s



       Final RHF  results 
       ------------------ 

         Total SCF energy =   -100.033978856934
      One-electron energy =   -150.374471006319
      Two-electron energy =     45.211058795479
 Nuclear repulsion energy =      5.129433353906

        Time for solution =      0.1s




                   Four-Index Transformation
                   -------------------------
          Number of basis functions:             48
          Number of shells:                      19
          Number of occupied orbitals:            5
          Number of occ. correlated orbitals:     5
          Block length:                          16
          Superscript MO index range:      1 -    5
          Subscript MO index range:        1 -   48
          MO coefficients read from:  ./molecule.movecs        
          Number of operator matrices in core:   30
          Half-transformed integrals produced

     Pass:    1     Index range:    1  -    5     Time:      0.04


 ****************************************************************************
              the segmented parallel ccsd program:    5 nodes
 ****************************************************************************




 level of theory    ccsd
 number of core         0
 number of occupied     5
 number of virtual     43
 number of deleted      0
 total functions       48
 number of shells      19
 basis label          566



   ***** ccsd parameters *****
   iprt   =     0
   convi  =  0.100E-05
   maxit  =    20
   mxvec  =     5
 memory             52424236
  Using  1 OpenMP thread(s) in CCSD
  Recompile w/ USE_OPENMP=1 to use threads in CCSD
  Restarting from old vector in ./molecule.t2


-------------------------------------------------------------------------
 iter     correlation     delta       rms       T2     Non-T2      Main
             energy      energy      error      ampl     ampl      Block
                                                time     time      time
-------------------------------------------------------------------------
   1     -0.2361698726 -2.362D-01  1.092D-01     0.10     0.00     0.08
   2     -0.2342875328  1.882D-03  3.759D-02     0.03     0.00     0.02
   3     -0.2362383209 -1.951D-03  1.150D-02     0.03     0.00     0.02
   4     -0.2365076302 -2.693D-04  4.683D-03     0.04     0.00     0.02
   5     -0.2366862692 -1.786D-04  3.615D-04     0.03     0.00     0.02
   6     -0.2367130398 -2.677D-05  3.937D-04     0.03     0.00     0.02
   7     -0.2367123930  6.469D-07  1.327D-04     0.03     0.00     0.01
   8     -0.2367112302  1.163D-06  1.744D-04     0.03     0.00     0.02
   9     -0.2367103639  8.663D-07  3.176D-05     0.03     0.00     0.01
  10     -0.2367100338  3.301D-07  1.635D-05     0.03     0.00     0.02
  11     -0.2367100527 -1.886D-08  2.820D-06     0.03     0.00     0.02
  12     -0.2367100516  1.100D-09  8.001D-07     0.03     0.00     0.01
                  *************converged*************
-------------------------------------------------------------------------

 -----------
 CCSD Energy
 -----------
 Reference energy:            -100.033978856934397
 CCSD corr. energy:             -0.236710051556586
 Total CCSD energy:           -100.270688908490982


 --------------------------------
 Spin Component Scaled (SCS) CCSD
 --------------------------------
 Same spin contribution:                 -0.054630803492385
 Same spin scaling factor:                1.130000000000000
 Opposite spin contribution:             -0.182079248064201
 Opposite spin scaling fact.:             1.270000000000000
 SCS-CCSD correlation energy:            -0.292973452987930
 Total SCS-CCSD energy:                -100.326952309922333

 routine      calls  cpu(0)   cpu-min  cpu-ave  cpu-max   i/o 
 aoccsd          1     0.01     0.01     0.01     0.01    0.00
 iterdrv         1     0.04     0.04     0.04     0.04    0.00
 pampt          12     0.03     0.03     0.03     0.03    0.00
 t2pm           12     0.03     0.03     0.03     0.03    0.00
 sxy            12     0.03     0.03     0.05     0.07    0.00
 ints         7220     0.06     0.05     0.06     0.06    0.00
 f_write        76     0.00     0.00     0.00     0.00    0.00
 t2eri         456     0.10     0.09     0.10     0.11    0.00
 idx2          456     0.03     0.02     0.03     0.03    0.00
 idx34          12     0.00     0.00     0.00     0.00    0.00
 ht2pm          12     0.04     0.04     0.04     0.04    0.00
 itm            12     0.12     0.12     0.12     0.12    0.00
 pdiis          12     0.00     0.00     0.00     0.00    0.00
 r_read        418     0.01     0.01     0.01     0.01    0.00
 Total                 0.51     0.51     0.51     0.51    0.00
 step     1 energy        -100.27068891
                                 NWChem SCF Module
                                 -----------------


                                 CCSD/daug-cc-pVDZ



  ao basis        = "ao basis"
  functions       =    48
  atoms           =     2
  closed shells   =     5
  open shells     =     0
  charge          =   0.00
  wavefunction    = RHF 
  input vectors   = ./molecule.movecs
  output vectors  = ./molecule.movecs
  use symmetry    = T
  symmetry adapt  = T


 Forming initial guess at       1.5s


 Starting SCF solution at       1.5s



       Final RHF  results 
       ------------------ 

         Total SCF energy =   -100.034747832556
      One-electron energy =   -150.516000165116
      Two-electron energy =     45.267776423750
 Nuclear repulsion energy =      5.213475908810

        Time for solution =      0.1s




                   Four-Index Transformation
                   -------------------------
          Number of basis functions:             48
          Number of shells:                      19
          Number of occupied orbitals:            5
          Number of occ. correlated orbitals:     5
          Block length:                          16
          Superscript MO index range:      1 -    5
          Subscript MO index range:        1 -   48
          MO coefficients read from:  ./molecule.movecs        
          Number of operator matrices in core:   30
          Half-transformed integrals produced

     Pass:    1     Index range:    1  -    5     Time:      0.04


 ****************************************************************************
              the segmented parallel ccsd program:    5 nodes
 ****************************************************************************




 level of theory    ccsd
 number of core         0
 number of occupied     5
 number of virtual     43
 number of deleted      0
 total functions       48
 number of shells      19
 basis label          566



   ***** ccsd parameters *****
   iprt   =     0
   convi  =  0.100E-05
   maxit  =    20
   mxvec  =     5
 memory             52424236
  Using  1 OpenMP thread(s) in CCSD
  Recompile w/ USE_OPENMP=1 to use threads in CCSD
  Restarting from old vector in ./molecule.t2


-------------------------------------------------------------------------
 iter     correlation     delta       rms       T2     Non-T2      Main
             energy      energy      error      ampl     ampl      Block
                                                time     time      time
-------------------------------------------------------------------------
   1     -0.2354344321 -2.354D-01  6.174D-02     0.10     0.00     0.08
   2     -0.2351866247  2.478D-04  1.587D-02     0.03     0.00     0.01
   3     -0.2358310791 -6.445D-04  7.742D-03     0.03     0.00     0.01
   4     -0.2358748060 -4.373D-05  4.327D-03     0.04     0.00     0.02
   5     -0.2359394721 -6.467D-05  8.824D-04     0.03     0.00     0.01
   6     -0.2359562712 -1.680D-05  1.374D-04     0.03     0.00     0.01
   7     -0.2359562066  6.461D-08  2.950D-05     0.04     0.00     0.02
   8     -0.2359565370 -3.304D-07  1.957D-05     0.04     0.00     0.02
   9     -0.2359564579  7.907D-08  1.281D-05     0.03     0.00     0.01
  10     -0.2359564360  2.191D-08  1.058D-06     0.03     0.00     0.02
  11     -0.2359564541 -1.806D-08  4.550D-07     0.03     0.00     0.01
                  *************converged*************
-------------------------------------------------------------------------

 -----------
 CCSD Energy
 -----------
 Reference energy:            -100.034747832555666
 CCSD corr. energy:             -0.235956454082852
 Total CCSD energy:           -100.270704286638519


 --------------------------------
 Spin Component Scaled (SCS) CCSD
 --------------------------------
 Same spin contribution:                 -0.054555038576232
 Same spin scaling factor:                1.130000000000000
 Opposite spin contribution:             -0.181401415506620
 Opposite spin scaling fact.:             1.270000000000000
 SCS-CCSD correlation energy:            -0.292026991284550
 Total SCS-CCSD energy:                -100.326774823840211

 routine      calls  cpu(0)   cpu-min  cpu-ave  cpu-max   i/o 
 aoccsd          1     0.01     0.01     0.01     0.01    0.00
 iterdrv         1     0.04     0.04     0.04     0.04    0.00
 pampt          11     0.03     0.03     0.03     0.03    0.00
 t2pm           11     0.03     0.03     0.03     0.03    0.00
 sxy            11     0.05     0.03     0.05     0.06    0.00
 ints         7220     0.05     0.05     0.06     0.06    0.00
 f_write        76     0.00     0.00     0.00     0.00    0.00
 t2eri         418     0.09     0.08     0.09     0.09    0.00
 idx2          418     0.03     0.02     0.02     0.03    0.00
 idx34          11     0.00     0.00     0.00     0.00    0.00
 ht2pm          11     0.03     0.03     0.03     0.03    0.00
 itm            11     0.11     0.11     0.11     0.11    0.00
 pdiis          11     0.00     0.00     0.00     0.00    0.00
 r_read        380     0.01     0.01     0.01     0.01    0.00
 Total                 0.48     0.48     0.48     0.48    0.00
 step    -1 energy        -100.27070429
            gradient         0.000769


                         CCSD ENERGY GRADIENTS

    atom               coordinates                        gradient
                 x          y          z           x          y          z
   1 F       0.000000   0.000000  -0.174044    0.000000   0.000000  -0.000544
   2 H       0.000000   0.000000   1.566394    0.000000   0.000000   0.000544


  no constraints, skipping    0.0000000000000000     

@ Step       Energy      Delta E   Gmax     Grms     Xrms     Xmax   Walltime
@ ---- ---------------- -------- -------- -------- -------- -------- --------
@    0    -100.27075815  0.0D+00  0.00054  0.00054  0.00000  0.00000      2.2
                                                                    

  no constraints, skipping    0.0000000000000000     
  no constraints, skipping    0.0000000000000000     
  no constraints, skipping    0.0000000000000000     
                                 NWChem SCF Module
                                 -----------------


                                 CCSD/daug-cc-pVDZ



  ao basis        = "ao basis"
  functions       =    48
  atoms           =     2
  closed shells   =     5
  open shells     =     0
  charge          =   0.00
  wavefunction    = RHF 
  input vectors   = ./molecule.movecs
  output vectors  = ./molecule.movecs
  use symmetry    = T
  symmetry adapt  = T


 Forming initial guess at       2.2s


 Starting SCF solution at       2.2s



       Final RHF  results 
       ------------------ 

         Total SCF energy =   -100.034468915666
      One-electron energy =   -150.452931556856
      Two-electron energy =     45.242486677910
 Nuclear repulsion energy =      5.175975963280

        Time for solution =      0.1s




                   Four-Index Transformation
                   -------------------------
          Number of basis functions:             48
          Number of shells:                      19
          Number of occupied orbitals:            5
          Number of occ. correlated orbitals:     5
          Block length:                          16
          Superscript MO index range:      1 -    5
          Subscript MO index range:        1 -   48
          MO coefficients read from:  ./molecule.movecs        
          Number of operator matrices in core:   30
          Half-transformed integrals produced

     Pass:    1     Index range:    1  -    5     Time:      0.04


 ****************************************************************************
              the segmented parallel ccsd program:    5 nodes
 ****************************************************************************




 level of theory    ccsd
 number of core         0
 number of occupied     5
 number of virtual     43
 number of deleted      0
 total functions       48
 number of shells      19
 basis label          566



   ***** ccsd parameters *****
   iprt   =     0
   convi  =  0.100E-05
   maxit  =    20
   mxvec  =     5
 memory             52424412
  Using  1 OpenMP thread(s) in CCSD
  Recompile w/ USE_OPENMP=1 to use threads in CCSD
  Restarting from old vector in ./molecule.t2


-------------------------------------------------------------------------
 iter     correlation     delta       rms       T2     Non-T2      Main
             energy      energy      error      ampl     ampl      Block
                                                time     time      time
-------------------------------------------------------------------------
   1     -0.2356894315 -2.357D-01  8.495D-02     0.10     0.00     0.08
   2     -0.2344321877  1.257D-03  2.595D-02     0.03     0.00     0.01
   3     -0.2358931784 -1.461D-03  1.325D-02     0.03     0.00     0.01
   4     -0.2361070076 -2.138D-04  4.102D-03     0.03     0.00     0.01
   5     -0.2362787147 -1.717D-04  1.288D-03     0.03     0.00     0.01
   6     -0.2362939825 -1.527D-05  2.234D-04     0.03     0.00     0.01
   7     -0.2362909000  3.083D-06  5.355D-05     0.03     0.00     0.01
   8     -0.2362896874  1.213D-06  1.020D-04     0.03     0.00     0.01
   9     -0.2362895165  1.709D-07  2.271D-05     0.03     0.00     0.01
  10     -0.2362894351  8.138D-08  4.751D-06     0.03     0.00     0.02
  11     -0.2362894569 -2.178D-08  1.748D-07     0.03     0.00     0.01
                  *************converged*************
-------------------------------------------------------------------------

 -----------
 CCSD Energy
 -----------
 Reference energy:            -100.034468915666437
 CCSD corr. energy:             -0.236289456907736
 Total CCSD energy:           -100.270758372574178


 --------------------------------
 Spin Component Scaled (SCS) CCSD
 --------------------------------
 Same spin contribution:                 -0.054588887630875
 Same spin scaling factor:                1.130000000000000
 Opposite spin contribution:             -0.181700569276861
 Opposite spin scaling fact.:             1.270000000000000
 SCS-CCSD correlation energy:            -0.292445166004502
 Total SCS-CCSD energy:                -100.326914081670935

 routine      calls  cpu(0)   cpu-min  cpu-ave  cpu-max   i/o 
 aoccsd          1     0.01     0.01     0.01     0.01    0.00
 iterdrv         1     0.04     0.04     0.04     0.04    0.00
 pampt          11     0.03     0.03     0.03     0.03    0.00
 t2pm           11     0.03     0.03     0.03     0.03    0.00
 sxy            11     0.04     0.03     0.04     0.05    0.00
 ints         7220     0.06     0.05     0.06     0.07    0.00
 f_write        76     0.00     0.00     0.00     0.00    0.00
 t2eri         418     0.09     0.07     0.09     0.09    0.00
 idx2          418     0.02     0.02     0.02     0.03    0.00
 idx34          11     0.00     0.00     0.00     0.00    0.00
 ht2pm          11     0.03     0.03     0.03     0.03    0.00
 itm            11     0.10     0.10     0.10     0.10    0.00
 pdiis          11     0.00     0.00     0.00     0.00    0.00
 r_read        380     0.01     0.01     0.01     0.01    0.00
 Total                 0.47     0.47     0.47     0.47    0.00
 Line search: 
     step= 1.00 grad=-8.9D-07 hess= 6.7D-07 energy=   -100.270758 mode=downhill
 new step= 0.66                   predicted energy=   -100.270758
  no constraints, skipping    0.0000000000000000     
  no constraints, skipping    0.0000000000000000     
  no constraints, skipping    0.0000000000000000     

          --------
          Step   1
          --------
                         NWChem Numerical Gradients Module
                         ---------------------------------


 No. of totally-symmetric internal modes =   1

                                 NWChem SCF Module
                                 -----------------


                                 CCSD/daug-cc-pVDZ



  ao basis        = "ao basis"
  functions       =    48
  atoms           =     2
  closed shells   =     5
  open shells     =     0
  charge          =   0.00
  wavefunction    = RHF 
  input vectors   = ./molecule.movecs
  output vectors  = ./molecule.movecs
  use symmetry    = T
  symmetry adapt  = T


 Forming initial guess at       2.9s


 Starting SCF solution at       2.9s



       Final RHF  results 
       ------------------ 

         Total SCF energy =   -100.034454334857
      One-electron energy =   -150.450167137815
      Two-electron energy =     45.241378660747
 Nuclear repulsion energy =      5.174334142210

        Time for solution =      0.1s




                   Four-Index Transformation
                   -------------------------
          Number of basis functions:             48
          Number of shells:                      19
          Number of occupied orbitals:            5
          Number of occ. correlated orbitals:     5
          Block length:                          16
          Superscript MO index range:      1 -    5
          Subscript MO index range:        1 -   48
          MO coefficients read from:  ./molecule.movecs        
          Number of operator matrices in core:   30
          Half-transformed integrals produced

     Pass:    1     Index range:    1  -    5     Time:      0.04


 ****************************************************************************
              the segmented parallel ccsd program:    5 nodes
 ****************************************************************************




 level of theory    ccsd
 number of core         0
 number of occupied     5
 number of virtual     43
 number of deleted      0
 total functions       48
 number of shells      19
 basis label          566



   ***** ccsd parameters *****
   iprt   =     0
   convi  =  0.100E-05
   maxit  =    20
   mxvec  =     5
 memory             52424236
  Using  1 OpenMP thread(s) in CCSD
  Recompile w/ USE_OPENMP=1 to use threads in CCSD
  Restarting from old vector in ./molecule.t2


-------------------------------------------------------------------------
 iter     correlation     delta       rms       T2     Non-T2      Main
             energy      energy      error      ampl     ampl      Block
                                                time     time      time
-------------------------------------------------------------------------
   1     -0.2364887173 -2.365D-01  5.938D-02     0.10     0.00     0.08
   2     -0.2353151964  1.174D-03  2.630D-02     0.04     0.00     0.02
   3     -0.2360981917 -7.830D-04  9.520D-03     0.03     0.00     0.02
   4     -0.2362236435 -1.255D-04  2.505D-03     0.03     0.00     0.02
   5     -0.2363050345 -8.139D-05  6.888D-04     0.03     0.00     0.01
   6     -0.2363038337  1.201D-06  1.646D-04     0.03     0.00     0.01
   7     -0.2363044468 -6.131D-07  5.141D-05     0.03     0.00     0.01
   8     -0.2363041941  2.527D-07  2.198D-05     0.03     0.00     0.01
   9     -0.2363041104  8.369D-08  1.112D-05     0.03     0.00     0.02
  10     -0.2363041496 -3.925D-08  5.356D-06     0.03     0.00     0.01
  11     -0.2363041447  4.863D-09  3.443D-07     0.03     0.00     0.02
                  *************converged*************
-------------------------------------------------------------------------

 -----------
 CCSD Energy
 -----------
 Reference energy:            -100.034454334857315
 CCSD corr. energy:             -0.236304144749800
 Total CCSD energy:           -100.270758479607110


 --------------------------------
 Spin Component Scaled (SCS) CCSD
 --------------------------------
 Same spin contribution:                 -0.054590376244883
 Same spin scaling factor:                1.130000000000000
 Opposite spin contribution:             -0.181713768504917
 Opposite spin scaling fact.:             1.270000000000000
 SCS-CCSD correlation energy:            -0.292463611157963
 Total SCS-CCSD energy:                -100.326917946015271

 routine      calls  cpu(0)   cpu-min  cpu-ave  cpu-max   i/o 
 aoccsd          1     0.01     0.01     0.01     0.01    0.00
 iterdrv         1     0.04     0.04     0.04     0.04    0.00
 pampt          11     0.03     0.03     0.03     0.03    0.00
 t2pm           11     0.03     0.03     0.03     0.03    0.00
 sxy            11     0.07     0.04     0.05     0.07    0.00
 ints         7220     0.05     0.05     0.06     0.07    0.00
 f_write        76     0.00     0.00     0.00     0.00    0.00
 t2eri         418     0.08     0.08     0.09     0.10    0.00
 idx2          418     0.02     0.02     0.03     0.03    0.00
 idx34          11     0.00     0.00     0.00     0.00    0.00
 ht2pm          11     0.03     0.03     0.03     0.03    0.00
 itm            11     0.10     0.10     0.10     0.10    0.00
 pdiis          11     0.00     0.00     0.00     0.00    0.00
 r_read        380     0.01     0.01     0.01     0.01    0.00
 Total                 0.47     0.47     0.47     0.47    0.00
 Reference energy        -100.27075848

 Finite difference step  1.00000D-02
 Use five point formula F

                                 NWChem SCF Module
                                 -----------------


                                 CCSD/daug-cc-pVDZ



  ao basis        = "ao basis"
  functions       =    48
  atoms           =     2
  closed shells   =     5
  open shells     =     0
  charge          =   0.00
  wavefunction    = RHF 
  input vectors   = ./molecule.movecs
  output vectors  = ./molecule.movecs
  use symmetry    = T
  symmetry adapt  = T


 Forming initial guess at       3.5s


 Starting SCF solution at       3.6s



       Final RHF  results 
       ------------------ 

         Total SCF energy =   -100.034017261995
      One-electron energy =   -150.379820031697
      Two-electron energy =     45.213200185341
 Nuclear repulsion energy =      5.132602584360

        Time for solution =      0.1s




                   Four-Index Transformation
                   -------------------------
          Number of basis functions:             48
          Number of shells:                      19
          Number of occupied orbitals:            5
          Number of occ. correlated orbitals:     5
          Block length:                          16
          Superscript MO index range:      1 -    5
          Subscript MO index range:        1 -   48
          MO coefficients read from:  ./molecule.movecs        
          Number of operator matrices in core:   30
          Half-transformed integrals produced

     Pass:    1     Index range:    1  -    5     Time:      0.04


 ****************************************************************************
              the segmented parallel ccsd program:    5 nodes
 ****************************************************************************




 level of theory    ccsd
 number of core         0
 number of occupied     5
 number of virtual     43
 number of deleted      0
 total functions       48
 number of shells      19
 basis label          566



   ***** ccsd parameters *****
   iprt   =     0
   convi  =  0.100E-05
   maxit  =    20
   mxvec  =     5
 memory             52424236
  Using  1 OpenMP thread(s) in CCSD
  Recompile w/ USE_OPENMP=1 to use threads in CCSD
  Restarting from old vector in ./molecule.t2


-------------------------------------------------------------------------
 iter     correlation     delta       rms       T2     Non-T2      Main
             energy      energy      error      ampl     ampl      Block
                                                time     time      time
-------------------------------------------------------------------------
   1     -0.2404330151 -2.404D-01  1.268D-01     0.11     0.00     0.09
   2     -0.2337015379  6.731D-03  2.140D-02     0.03     0.00     0.01
   3     -0.2364013787 -2.700D-03  2.575D-03     0.08     0.00     0.02
   4     -0.2364767718 -7.539D-05  3.429D-03     0.04     0.00     0.02
   5     -0.2366460402 -1.693D-04  4.813D-04     0.03     0.00     0.02
   6     -0.2366806361 -3.460D-05  3.584D-04     0.03     0.00     0.01
   7     -0.2366840079 -3.372D-06  1.797D-04     0.03     0.00     0.01
   8     -0.2366828870  1.121D-06  1.968D-04     0.04     0.00     0.02
   9     -0.2366815175  1.370D-06  3.211D-05     0.04     0.00     0.02
  10     -0.2366811433  3.742D-07  1.649D-05     0.04     0.00     0.02
  11     -0.2366811271  1.623D-08  2.723D-06     0.03     0.00     0.02
  12     -0.2366811339 -6.837D-09  1.082D-06     0.03     0.00     0.02
  13     -0.2366811749 -4.092D-08  4.770D-07     0.03     0.00     0.01
                  *************converged*************
-------------------------------------------------------------------------

 -----------
 CCSD Energy
 -----------
 Reference energy:            -100.034017261995103
 CCSD corr. energy:             -0.236681174862576
 Total CCSD energy:           -100.270698436857685


 --------------------------------
 Spin Component Scaled (SCS) CCSD
 --------------------------------
 Same spin contribution:                 -0.054627946314155
 Same spin scaling factor:                1.130000000000000
 Opposite spin contribution:             -0.182053228548420
 Opposite spin scaling fact.:             1.270000000000000
 SCS-CCSD correlation energy:            -0.292937179591489
 Total SCS-CCSD energy:                -100.326954441586594

 routine      calls  cpu(0)   cpu-min  cpu-ave  cpu-max   i/o 
 aoccsd          1     0.01     0.01     0.01     0.01    0.00
 iterdrv         1     0.04     0.04     0.04     0.04    0.00
 pampt          13     0.04     0.04     0.04     0.04    0.00
 t2pm           13     0.03     0.03     0.03     0.03    0.00
 sxy            13     0.05     0.04     0.07     0.09    0.00
 ints         7220     0.07     0.05     0.06     0.07    0.00
 f_write        76     0.00     0.00     0.00     0.00    0.00
 t2eri         494     0.11     0.09     0.11     0.12    0.00
 idx2          494     0.03     0.03     0.03     0.04    0.00
 idx34          13     0.00     0.00     0.00     0.00    0.00
 ht2pm          13     0.04     0.04     0.04     0.04    0.00
 itm            13     0.15     0.15     0.15     0.15    0.00
 pdiis          13     0.00     0.00     0.00     0.00    0.00
 r_read        456     0.01     0.01     0.01     0.01    0.00
 Total                 0.60     0.60     0.60     0.60    0.00
 step     1 energy        -100.27069844
                                 NWChem SCF Module
                                 -----------------


                                 CCSD/daug-cc-pVDZ



  ao basis        = "ao basis"
  functions       =    48
  atoms           =     2
  closed shells   =     5
  open shells     =     0
  charge          =   0.00
  wavefunction    = RHF 
  input vectors   = ./molecule.movecs
  output vectors  = ./molecule.movecs
  use symmetry    = T
  symmetry adapt  = T


 Forming initial guess at       4.4s


 Starting SCF solution at       4.4s



       Final RHF  results 
       ------------------ 

         Total SCF energy =   -100.034767251745
      One-electron energy =   -150.521500123016
      Two-electron energy =     45.269982996376
 Nuclear repulsion energy =      5.216749874894

        Time for solution =      0.1s




                   Four-Index Transformation
                   -------------------------
          Number of basis functions:             48
          Number of shells:                      19
          Number of occupied orbitals:            5
          Number of occ. correlated orbitals:     5
          Block length:                          16
          Superscript MO index range:      1 -    5
          Subscript MO index range:        1 -   48
          MO coefficients read from:  ./molecule.movecs        
          Number of operator matrices in core:   30
          Half-transformed integrals produced

     Pass:    1     Index range:    1  -    5     Time:      0.04


 ****************************************************************************
              the segmented parallel ccsd program:    5 nodes
 ****************************************************************************




 level of theory    ccsd
 number of core         0
 number of occupied     5
 number of virtual     43
 number of deleted      0
 total functions       48
 number of shells      19
 basis label          566



   ***** ccsd parameters *****
   iprt   =     0
   convi  =  0.100E-05
   maxit  =    20
   mxvec  =     5
 memory             52424236
  Using  1 OpenMP thread(s) in CCSD
  Recompile w/ USE_OPENMP=1 to use threads in CCSD
  Restarting from old vector in ./molecule.t2


-------------------------------------------------------------------------
 iter     correlation     delta       rms       T2     Non-T2      Main
             energy      energy      error      ampl     ampl      Block
                                                time     time      time
-------------------------------------------------------------------------
   1     -0.2376182556 -2.376D-01  6.747D-02     0.10     0.00     0.08
   2     -0.2340822614  3.536D-03  4.011D-02     0.03     0.00     0.01
   3     -0.2352753395 -1.193D-03  1.894D-02     0.03     0.00     0.02
   4     -0.2357491106 -4.738D-04  3.471D-03     0.03     0.00     0.02
   5     -0.2359305862 -1.815D-04  1.231D-03     0.03     0.00     0.02
   6     -0.2359310306 -4.444D-07  2.607D-04     0.03     0.00     0.02
   7     -0.2359283353  2.695D-06  6.987D-05     0.03     0.00     0.02
   8     -0.2359274950  8.404D-07  7.569D-05     0.03     0.00     0.02
   9     -0.2359276311 -1.361D-07  1.123D-05     0.03     0.00     0.01
  10     -0.2359275940  3.706D-08  9.185D-06     0.03     0.00     0.02
  11     -0.2359276307 -3.666D-08  7.437D-07     0.03     0.00     0.01
                  *************converged*************
-------------------------------------------------------------------------

 -----------
 CCSD Energy
 -----------
 Reference energy:            -100.034767251745492
 CCSD corr. energy:             -0.235927630650283
 Total CCSD energy:           -100.270694882395773


 --------------------------------
 Spin Component Scaled (SCS) CCSD
 --------------------------------
 Same spin contribution:                 -0.054552073951555
 Same spin scaling factor:                1.130000000000000
 Opposite spin contribution:             -0.181375556698728
 Opposite spin scaling fact.:             1.270000000000000
 SCS-CCSD correlation energy:            -0.291990800572641
 Total SCS-CCSD energy:                -100.326758052318141

 routine      calls  cpu(0)   cpu-min  cpu-ave  cpu-max   i/o 
 aoccsd          1     0.01     0.01     0.01     0.01    0.00
 iterdrv         1     0.04     0.04     0.04     0.04    0.00
 pampt          11     0.03     0.03     0.03     0.03    0.00
 t2pm           11     0.03     0.03     0.03     0.03    0.00
 sxy            11     0.03     0.03     0.05     0.07    0.00
 ints         7220     0.06     0.04     0.05     0.06    0.00
 f_write        76     0.00     0.00     0.00     0.00    0.00
 t2eri         418     0.10     0.08     0.09     0.10    0.00
 idx2          418     0.03     0.02     0.03     0.03    0.00
 idx34          11     0.00     0.00     0.00     0.00    0.00
 ht2pm          11     0.03     0.03     0.03     0.03    0.00
 itm            11     0.10     0.10     0.10     0.10    0.00
 pdiis          11     0.00     0.00     0.00     0.00    0.00
 r_read        380     0.01     0.01     0.01     0.01    0.00
 Total                 0.47     0.47     0.47     0.47    0.00
 step    -1 energy        -100.27069488
            gradient        -0.000178


                         CCSD ENERGY GRADIENTS

    atom               coordinates                        gradient
                 x          y          z           x          y          z
   1 F       0.000000   0.000000  -0.173502    0.000000   0.000000   0.000126
   2 H       0.000000   0.000000   1.565852    0.000000   0.000000  -0.000126


  no constraints, skipping    0.0000000000000000     

  Step       Energy      Delta E   Gmax     Grms     Xrms     Xmax   Walltime
  ---- ---------------- -------- -------- -------- -------- -------- --------
@    1    -100.27075848 -3.3D-07  0.00013  0.00013  0.00031  0.00054      5.0
                                     ok       ok       ok       ok  


      ----------------------
      Optimization converged
      ----------------------


  Step       Energy      Delta E   Gmax     Grms     Xrms     Xmax   Walltime
  ---- ---------------- -------- -------- -------- -------- -------- --------
@    1    -100.27075848 -3.3D-07  0.00013  0.00013  0.00031  0.00054      5.0
                                     ok       ok       ok       ok  



                         Geometry "geometry" -> "geometry"
                         ---------------------------------

 Output coordinates in angstroms (scale by  1.889725989 to convert to a.u.)

  No.       Tag          Charge          X              Y              Z
 ---- ---------------- ---------- -------------- -------------- --------------
    1 F                    9.0000     0.00000000     0.00000000    -0.09181334
    2 H                    1.0000     0.00000000     0.00000000     0.82861334

      Atomic Mass 
      ----------- 

      F                 18.998400
      H                  1.007825


 Effective nuclear repulsion energy (a.u.)       5.1743341422

            Nuclear Dipole moment (a.u.) 
            ----------------------------
        X                 Y               Z
 ---------------- ---------------- ----------------
     0.0000000000     0.0000000000     0.0043336047

      Symmetry information
      --------------------

 Group name             C2v       
 Group number             16
 Group order               4
 No. of unique centers     2

      Symmetry unique atoms

     1    2


                Final and change from initial internal coordinates
                --------------------------------------------------



                                Z-matrix (autoz)
                                -------- 

 Units are Angstrom for bonds and degrees for angles

      Type          Name      I     J     K     L     M      Value       Change
      ----------- --------  ----- ----- ----- ----- ----- ---------- ----------
    1 Stretch                  1     2                       0.92043   -0.00057



                                NWChem Input Module
                                -------------------




                   NWChem Nuclear Hessian and Frequency Analysis
                   ---------------------------------------------



                         NWChem Finite-difference Hessian
                         --------------------------------


                                 NWChem SCF Module
                                 -----------------


                                 CCSD/daug-cc-pVDZ



  ao basis        = "ao basis"
  functions       =    48
  atoms           =     2
  closed shells   =     5
  open shells     =     0
  charge          =   0.00
  wavefunction    = RHF 
  input vectors   = ./molecule.movecs
  output vectors  = ./molecule.movecs
  use symmetry    = T
  symmetry adapt  = T


 Forming initial guess at       5.0s


 Starting SCF solution at       5.0s



       Final RHF  results 
       ------------------ 

         Total SCF energy =   -100.034454334857
      One-electron energy =   -150.450167137814
      Two-electron energy =     45.241378660747
 Nuclear repulsion energy =      5.174334142210

        Time for solution =      0.0s




                   Four-Index Transformation
                   -------------------------
          Number of basis functions:             48
          Number of shells:                      19
          Number of occupied orbitals:            5
          Number of occ. correlated orbitals:     5
          Block length:                          16
          Superscript MO index range:      1 -    5
          Subscript MO index range:        1 -   48
          MO coefficients read from:  ./molecule.movecs        
          Number of operator matrices in core:   30
          Half-transformed integrals produced

     Pass:    1     Index range:    1  -    5     Time:      0.04


 ****************************************************************************
              the segmented parallel ccsd program:    5 nodes
 ****************************************************************************




 level of theory    ccsd
 number of core         0
 number of occupied     5
 number of virtual     43
 number of deleted      0
 total functions       48
 number of shells      19
 basis label          566



   ***** ccsd parameters *****
   iprt   =     0
   convi  =  0.100E-05
   maxit  =    20
   mxvec  =     5
 memory             52424436
  Using  1 OpenMP thread(s) in CCSD
  Recompile w/ USE_OPENMP=1 to use threads in CCSD
  Restarting from old vector in ./molecule.t2


-------------------------------------------------------------------------
 iter     correlation     delta       rms       T2     Non-T2      Main
             energy      energy      error      ampl     ampl      Block
                                                time     time      time
-------------------------------------------------------------------------
   1     -0.2389918121 -2.390D-01  9.888D-02     0.08     0.00     0.07
   2     -0.2353007848  3.691D-03  3.490D-02     0.03     0.00     0.01
   3     -0.2363723563 -1.072D-03  6.074D-03     0.03     0.00     0.02
   4     -0.2362650704  1.073D-04  2.872D-03     0.03     0.00     0.02
   5     -0.2363071909 -4.212D-05  6.370D-04     0.03     0.00     0.02
   6     -0.2363034658  3.725D-06  1.785D-04     0.03     0.00     0.02
   7     -0.2363046426 -1.177D-06  4.675D-05     0.03     0.00     0.02
   8     -0.2363042279  4.147D-07  9.948D-06     0.03     0.00     0.02
   9     -0.2363041551  7.280D-08  2.800D-06     0.03     0.00     0.01
  10     -0.2363041572 -2.112D-09  6.534D-07     0.03     0.00     0.01
                  *************converged*************
-------------------------------------------------------------------------

 -----------
 CCSD Energy
 -----------
 Reference energy:            -100.034454334857259
 CCSD corr. energy:             -0.236304157166176
 Total CCSD energy:           -100.270758492023432


 --------------------------------
 Spin Component Scaled (SCS) CCSD
 --------------------------------
 Same spin contribution:                 -0.054590352989695
 Same spin scaling factor:                1.130000000000000
 Opposite spin contribution:             -0.181713804176482
 Opposite spin scaling fact.:             1.270000000000000
 SCS-CCSD correlation energy:            -0.292463630182486
 Total SCS-CCSD energy:                -100.326917965039740

 routine      calls  cpu(0)   cpu-min  cpu-ave  cpu-max   i/o 
 aoccsd          1     0.01     0.01     0.01     0.01    0.00
 iterdrv         1     0.04     0.04     0.04     0.04    0.00
 pampt          10     0.03     0.03     0.03     0.03    0.00
 t2pm           10     0.02     0.02     0.02     0.02    0.00
 sxy            10     0.03     0.03     0.04     0.05    0.00
 ints         7220     0.05     0.05     0.05     0.05    0.00
 f_write        76     0.00     0.00     0.00     0.00    0.00
 t2eri         380     0.09     0.08     0.08     0.09    0.00
 idx2          380     0.02     0.02     0.02     0.02    0.00
 idx34          10     0.00     0.00     0.00     0.00    0.00
 ht2pm          10     0.03     0.03     0.03     0.03    0.00
 itm            10     0.10     0.10     0.10     0.10    0.00
 pdiis          10     0.00     0.00     0.00     0.00    0.00
 r_read        342     0.01     0.01     0.01     0.01    0.00
 Total                 0.43     0.43     0.43     0.43    0.00
  
 initial hessian

 zero matrix

  
                         NWChem Numerical Gradients Module
                         ---------------------------------


 No. of totally-symmetric internal modes =   3

                                 NWChem SCF Module
                                 -----------------


                                 CCSD/daug-cc-pVDZ



  ao basis        = "ao basis"
  functions       =    48
  atoms           =     2
  closed shells   =     5
  open shells     =     0
  charge          =   0.00
  wavefunction    = RHF 
  input vectors   = ./molecule.movecs
  output vectors  = ./molecule.movecs
  use symmetry    = F
  symmetry adapt  = F


 Forming initial guess at       5.6s


 Starting SCF solution at       5.6s



       Final RHF  results 
       ------------------ 

         Total SCF energy =   -100.034454327211
      One-electron energy =   -150.450165852128
      Two-electron energy =     45.241378237868
 Nuclear repulsion energy =      5.174333287048

        Time for solution =      0.1s




                   Four-Index Transformation
                   -------------------------
          Number of basis functions:             48
          Number of shells:                      19
          Number of occupied orbitals:            5
          Number of occ. correlated orbitals:     5
          Block length:                          16
          Superscript MO index range:      1 -    5
          Subscript MO index range:        1 -   48
          MO coefficients read from:  ./molecule.movecs        
          Number of operator matrices in core:   30
          Half-transformed integrals produced

     Pass:    1     Index range:    1  -    5     Time:      0.04


 ****************************************************************************
              the segmented parallel ccsd program:    5 nodes
 ****************************************************************************




 level of theory    ccsd
 number of core         0
 number of occupied     5
 number of virtual     43
 number of deleted      0
 total functions       48
 number of shells      19
 basis label          566



   ***** ccsd parameters *****
   iprt   =     0
   convi  =  0.100E-05
   maxit  =    20
   mxvec  =     5
 memory             52424180
  Using  1 OpenMP thread(s) in CCSD
  Recompile w/ USE_OPENMP=1 to use threads in CCSD
  Restarting from old vector in ./molecule.t2


-------------------------------------------------------------------------
 iter     correlation     delta       rms       T2     Non-T2      Main
             energy      energy      error      ampl     ampl      Block
                                                time     time      time
-------------------------------------------------------------------------
   1     -0.2379819719 -2.380D-01  9.738D-02     0.10     0.00     0.08
   2     -0.2346421197  3.340D-03  5.072D-02     0.03     0.00     0.01
   3     -0.2363718864 -1.730D-03  9.692D-03     0.03     0.00     0.02
   4     -0.2362061754  1.657D-04  1.125D-03     0.03     0.00     0.01
   5     -0.2362820796 -7.590D-05  9.014D-04     0.03     0.00     0.01
   6     -0.2363035890 -2.151D-05  1.505D-04     0.04     0.00     0.02
   7     -0.2363042283 -6.393D-07  2.539D-05     0.03     0.00     0.02
   8     -0.2363042336 -5.307D-09  2.907D-06     0.03     0.00     0.02
   9     -0.2363041571  7.648D-08  1.488D-05     0.03     0.00     0.02
  10     -0.2363041192  3.793D-08  1.349D-06     0.03     0.00     0.01
  11     -0.2363041520 -3.281D-08  3.607D-07     0.03     0.00     0.02
                  *************converged*************
-------------------------------------------------------------------------

 -----------
 CCSD Energy
 -----------
 Reference energy:            -100.034454327211122
 CCSD corr. energy:             -0.236304152018465
 Total CCSD energy:           -100.270758479229585


 --------------------------------
 Spin Component Scaled (SCS) CCSD
 --------------------------------
 Same spin contribution:                 -0.054590390002781
 Same spin scaling factor:                1.130000000000000
 Opposite spin contribution:             -0.181713762015685
 Opposite spin scaling fact.:             1.270000000000000
 SCS-CCSD correlation energy:            -0.292463618463062
 Total SCS-CCSD energy:                -100.326917945674182

 routine      calls  cpu(0)   cpu-min  cpu-ave  cpu-max   i/o 
 aoccsd          1     0.01     0.01     0.01     0.01    0.00
 iterdrv         1     0.04     0.04     0.04     0.04    0.00
 pampt          11     0.03     0.03     0.03     0.03    0.00
 t2pm           11     0.03     0.03     0.03     0.03    0.00
 sxy            11     0.02     0.02     0.05     0.06    0.00
 ints         7220     0.06     0.05     0.06     0.06    0.00
 f_write        76     0.00     0.00     0.00     0.00    0.00
 t2eri         418     0.10     0.08     0.09     0.10    0.00
 idx2          418     0.03     0.02     0.02     0.03    0.00
 idx34          11     0.00     0.00     0.00     0.00    0.00
 ht2pm          11     0.03     0.03     0.03     0.03    0.00
 itm            11     0.11     0.11     0.11     0.11    0.00
 pdiis          11     0.00     0.00     0.00     0.00    0.00
 r_read        380     0.01     0.01     0.01     0.01    0.00
 Total                 0.48     0.48     0.48     0.48    0.00
 Reference energy        -100.27075848

 Finite difference step  1.00000D-02
 Use five point formula F

                                 NWChem SCF Module
                                 -----------------


                                 CCSD/daug-cc-pVDZ



  ao basis        = "ao basis"
  functions       =    48
  atoms           =     2
  closed shells   =     5
  open shells     =     0
  charge          =   0.00
  wavefunction    = RHF 
  input vectors   = ./molecule.movecs
  output vectors  = ./molecule.movecs
  use symmetry    = F
  symmetry adapt  = F


 Forming initial guess at       6.3s


 Starting SCF solution at       6.3s



       Final RHF  results 
       ------------------ 

         Total SCF energy =   -100.034157714011
      One-electron energy =   -150.400321821360
      Two-electron energy =     45.221409344135
 Nuclear repulsion energy =      5.144754763214

        Time for solution =      0.1s




                   Four-Index Transformation
                   -------------------------
          Number of basis functions:             48
          Number of shells:                      19
          Number of occupied orbitals:            5
          Number of occ. correlated orbitals:     5
          Block length:                          16
          Superscript MO index range:      1 -    5
          Subscript MO index range:        1 -   48
          MO coefficients read from:  ./molecule.movecs        
          Number of operator matrices in core:   30
          Half-transformed integrals produced

     Pass:    1     Index range:    1  -    5     Time:      0.04


 ****************************************************************************
              the segmented parallel ccsd program:    5 nodes
 ****************************************************************************




 level of theory    ccsd
 number of core         0
 number of occupied     5
 number of virtual     43
 number of deleted      0
 total functions       48
 number of shells      19
 basis label          566



   ***** ccsd parameters *****
   iprt   =     0
   convi  =  0.100E-05
   maxit  =    20
   mxvec  =     5
 memory             52424180
  Using  1 OpenMP thread(s) in CCSD
  Recompile w/ USE_OPENMP=1 to use threads in CCSD
  Restarting from old vector in ./molecule.t2


-------------------------------------------------------------------------
 iter     correlation     delta       rms       T2     Non-T2      Main
             energy      energy      error      ampl     ampl      Block
                                                time     time      time
-------------------------------------------------------------------------
   1     -0.2366754790 -2.367D-01  1.020D-01     0.09     0.00     0.08
   2     -0.2341216522  2.554D-03  4.127D-02     0.03     0.00     0.01
   3     -0.2360640053 -1.942D-03  1.193D-02     0.04     0.00     0.02
   4     -0.2363669065 -3.029D-04  4.709D-03     0.03     0.00     0.02
   5     -0.2365459584 -1.791D-04  5.892D-04     0.03     0.00     0.01
   6     -0.2365740209 -2.806D-05  2.277D-04     0.03     0.00     0.01
   7     -0.2365733733  6.475D-07  1.288D-04     0.04     0.00     0.02
   8     -0.2365718833  1.490D-06  1.801D-04     0.03     0.00     0.02
   9     -0.2365709816  9.017D-07  2.627D-05     0.03     0.00     0.02
  10     -0.2365706468  3.348D-07  1.663D-05     0.03     0.00     0.01
  11     -0.2365706669 -2.007D-08  2.843D-06     0.04     0.00     0.02
  12     -0.2365706674 -5.123D-10  9.281D-07     0.03     0.00     0.02
                  *************converged*************
-------------------------------------------------------------------------

 -----------
 CCSD Energy
 -----------
 Reference energy:            -100.034157714011215
 CCSD corr. energy:             -0.236570667409086
 Total CCSD energy:           -100.270728381420298


 --------------------------------
 Spin Component Scaled (SCS) CCSD
 --------------------------------
 Same spin contribution:                 -0.054617035141752
 Same spin scaling factor:                1.130000000000000
 Opposite spin contribution:             -0.181953632267334
 Opposite spin scaling fact.:             1.270000000000000
 SCS-CCSD correlation energy:            -0.292798362689694
 Total SCS-CCSD energy:                -100.326956076700910

 routine      calls  cpu(0)   cpu-min  cpu-ave  cpu-max   i/o 
 aoccsd          1     0.01     0.01     0.01     0.01    0.00
 iterdrv         1     0.04     0.04     0.04     0.04    0.00
 pampt          12     0.04     0.04     0.04     0.04    0.00
 t2pm           12     0.03     0.03     0.03     0.03    0.00
 sxy            12     0.04     0.04     0.06     0.08    0.00
 ints         7220     0.06     0.04     0.05     0.06    0.00
 f_write        76     0.00     0.00     0.00     0.00    0.00
 t2eri         456     0.11     0.09     0.09     0.11    0.00
 idx2          456     0.03     0.02     0.03     0.03    0.00
 idx34          12     0.00     0.00     0.00     0.00    0.00
 ht2pm          12     0.03     0.03     0.03     0.03    0.00
 itm            12     0.12     0.12     0.12     0.12    0.00
 pdiis          12     0.00     0.00     0.00     0.00    0.00
 r_read        418     0.01     0.01     0.01     0.01    0.00
 Total                 0.51     0.51     0.51     0.51    0.00
 step     1 energy        -100.27072838
                                 NWChem SCF Module
                                 -----------------


                                 CCSD/daug-cc-pVDZ



  ao basis        = "ao basis"
  functions       =    48
  atoms           =     2
  closed shells   =     5
  open shells     =     0
  charge          =   0.00
  wavefunction    = RHF 
  input vectors   = ./molecule.movecs
  output vectors  = ./molecule.movecs
  use symmetry    = F
  symmetry adapt  = F


 Forming initial guess at       7.0s


 Starting SCF solution at       7.0s



       Final RHF  results 
       ------------------ 

         Total SCF energy =   -100.034688869741
      One-electron energy =   -150.500502582159
      Two-electron energy =     45.261559825766
 Nuclear repulsion energy =      5.204253886652

        Time for solution =      0.1s




                   Four-Index Transformation
                   -------------------------
          Number of basis functions:             48
          Number of shells:                      19
          Number of occupied orbitals:            5
          Number of occ. correlated orbitals:     5
          Block length:                          16
          Superscript MO index range:      1 -    5
          Subscript MO index range:        1 -   48
          MO coefficients read from:  ./molecule.movecs        
          Number of operator matrices in core:   30
          Half-transformed integrals produced

     Pass:    1     Index range:    1  -    5     Time:      0.04


 ****************************************************************************
              the segmented parallel ccsd program:    5 nodes
 ****************************************************************************




 level of theory    ccsd
 number of core         0
 number of occupied     5
 number of virtual     43
 number of deleted      0
 total functions       48
 number of shells      19
 basis label          566



   ***** ccsd parameters *****
   iprt   =     0
   convi  =  0.100E-05
   maxit  =    20
   mxvec  =     5
 memory             52424180
  Using  1 OpenMP thread(s) in CCSD
  Recompile w/ USE_OPENMP=1 to use threads in CCSD
  Restarting from old vector in ./molecule.t2


-------------------------------------------------------------------------
 iter     correlation     delta       rms       T2     Non-T2      Main
             energy      energy      error      ampl     ampl      Block
                                                time     time      time
-------------------------------------------------------------------------
   1     -0.2357954737 -2.358D-01  7.000D-02     0.09     0.00     0.07
   2     -0.2353149151  4.806D-04  2.216D-02     0.03     0.00     0.02
   3     -0.2359510750 -6.362D-04  6.492D-03     0.04     0.00     0.02
   4     -0.2359921126 -4.104D-05  3.218D-03     0.03     0.00     0.01
   5     -0.2360267582 -3.465D-05  6.699D-04     0.03     0.00     0.02
   6     -0.2360369189 -1.016D-05  1.752D-04     0.03     0.00     0.02
   7     -0.2360374697 -5.508D-07  1.126D-05     0.03     0.00     0.02
   8     -0.2360377594 -2.897D-07  3.455D-05     0.03     0.00     0.02
   9     -0.2360378452 -8.579D-08  4.706D-06     0.04     0.00     0.02
  10     -0.2360378337  1.145D-08  2.463D-06     0.03     0.00     0.02
  11     -0.2360378541 -2.039D-08  4.596D-07     0.03     0.00     0.02
                  *************converged*************
-------------------------------------------------------------------------

 -----------
 CCSD Energy
 -----------
 Reference energy:            -100.034688869740521
 CCSD corr. energy:             -0.236037854117888
 Total CCSD energy:           -100.270726723858402


 --------------------------------
 Spin Component Scaled (SCS) CCSD
 --------------------------------
 Same spin contribution:                 -0.054563370602727
 Same spin scaling factor:                1.130000000000000
 Opposite spin contribution:             -0.181474483515160
 Opposite spin scaling fact.:             1.270000000000000
 SCS-CCSD correlation energy:            -0.292129202845336
 Total SCS-CCSD energy:                -100.326818072585851

 routine      calls  cpu(0)   cpu-min  cpu-ave  cpu-max   i/o 
 aoccsd          1     0.01     0.01     0.01     0.01    0.00
 iterdrv         1     0.04     0.04     0.04     0.04    0.00
 pampt          11     0.03     0.03     0.03     0.03    0.00
 t2pm           11     0.03     0.03     0.03     0.03    0.00
 sxy            11     0.03     0.03     0.06     0.09    0.00
 ints         7220     0.05     0.04     0.05     0.06    0.00
 f_write        76     0.00     0.00     0.00     0.00    0.00
 t2eri         418     0.11     0.07     0.09     0.11    0.00
 idx2          418     0.03     0.02     0.02     0.03    0.00
 idx34          11     0.00     0.00     0.00     0.00    0.00
 ht2pm          11     0.03     0.03     0.03     0.03    0.00
 itm            11     0.11     0.11     0.11     0.11    0.00
 pdiis          11     0.00     0.00     0.00     0.00    0.00
 r_read        380     0.01     0.01     0.01     0.01    0.00
 Total                 0.47     0.47     0.47     0.47    0.00
 step    -1 energy        -100.27072672
            gradient        -0.000083
                                 NWChem SCF Module
                                 -----------------


                                 CCSD/daug-cc-pVDZ



  ao basis        = "ao basis"
  functions       =    48
  atoms           =     2
  closed shells   =     5
  open shells     =     0
  charge          =   0.00
  wavefunction    = RHF 
  input vectors   = ./molecule.movecs
  output vectors  = ./molecule.movecs
  use symmetry    = F
  symmetry adapt  = F


 Forming initial guess at       7.6s


 Starting SCF solution at       7.6s



       Final RHF  results 
       ------------------ 

         Total SCF energy =   -100.034453409290
      One-electron energy =   -150.449992994064
      Two-electron energy =     45.241308914064
 Nuclear repulsion energy =      5.174230670711

        Time for solution =      0.1s




                   Four-Index Transformation
                   -------------------------
          Number of basis functions:             48
          Number of shells:                      19
          Number of occupied orbitals:            5
          Number of occ. correlated orbitals:     5
          Block length:                          16
          Superscript MO index range:      1 -    5
          Subscript MO index range:        1 -   48
          MO coefficients read from:  ./molecule.movecs        
          Number of operator matrices in core:   30
          Half-transformed integrals produced

     Pass:    1     Index range:    1  -    5     Time:      0.03


 ****************************************************************************
              the segmented parallel ccsd program:    5 nodes
 ****************************************************************************




 level of theory    ccsd
 number of core         0
 number of occupied     5
 number of virtual     43
 number of deleted      0
 total functions       48
 number of shells      19
 basis label          566



   ***** ccsd parameters *****
   iprt   =     0
   convi  =  0.100E-05
   maxit  =    20
   mxvec  =     5
 memory             52424180
  Using  1 OpenMP thread(s) in CCSD
  Recompile w/ USE_OPENMP=1 to use threads in CCSD
  Restarting from old vector in ./molecule.t2


-------------------------------------------------------------------------
 iter     correlation     delta       rms       T2     Non-T2      Main
             energy      energy      error      ampl     ampl      Block
                                                time     time      time
-------------------------------------------------------------------------
   1     -0.2352642663 -2.353D-01  6.704D-02     0.11     0.00     0.09
   2     -0.2356512212 -3.870D-04  1.867D-02     0.03     0.00     0.02
   3     -0.2362663577 -6.151D-04  4.759D-03     0.03     0.00     0.02
   4     -0.2362627486  3.609D-06  3.584D-03     0.03     0.00     0.01
   5     -0.2362932021 -3.045D-05  8.769D-04     0.03     0.00     0.02
   6     -0.2363046322 -1.143D-05  1.453D-04     0.03     0.00     0.01
   7     -0.2363042437  3.885D-07  4.774D-05     0.03     0.00     0.01
   8     -0.2363048030 -5.592D-07  1.769D-05     0.03     0.00     0.01
   9     -0.2363050197 -2.168D-07  4.358D-06     0.03     0.00     0.01
  10     -0.2363050514 -3.164D-08  2.257D-06     0.03     0.00     0.02
  11     -0.2363050721 -2.072D-08  3.163D-07     0.03     0.00     0.01
                  *************converged*************
-------------------------------------------------------------------------

 -----------
 CCSD Energy
 -----------
 Reference energy:            -100.034453409289810
 CCSD corr. energy:             -0.236305072083265
 Total CCSD energy:           -100.270758481373079


 --------------------------------
 Spin Component Scaled (SCS) CCSD
 --------------------------------
 Same spin contribution:                 -0.054590468707372
 Same spin scaling factor:                1.130000000000000
 Opposite spin contribution:             -0.181714603375892
 Opposite spin scaling fact.:             1.270000000000000
 SCS-CCSD correlation energy:            -0.292464775926714
 Total SCS-CCSD energy:                -100.326918185216527

 routine      calls  cpu(0)   cpu-min  cpu-ave  cpu-max   i/o 
 aoccsd          1     0.01     0.01     0.01     0.01    0.00
 iterdrv         1     0.04     0.04     0.04     0.04    0.00
 pampt          11     0.03     0.03     0.03     0.03    0.00
 t2pm           11     0.03     0.03     0.03     0.03    0.00
 sxy            11     0.07     0.04     0.06     0.07    0.00
 ints         7220     0.05     0.05     0.06     0.07    0.00
 f_write        76     0.00     0.00     0.00     0.00    0.00
 t2eri         418     0.08     0.08     0.08     0.09    0.00
 idx2          418     0.02     0.02     0.02     0.03    0.00
 idx34          11     0.00     0.00     0.00     0.00    0.00
 ht2pm          11     0.03     0.03     0.03     0.03    0.00
 itm            11     0.10     0.10     0.10     0.10    0.00
 pdiis          11     0.00     0.00     0.00     0.00    0.00
 r_read        380     0.01     0.01     0.01     0.01    0.00
 Total                 0.47     0.47     0.47     0.47    0.00
 step     2 energy        -100.27075848
                                 NWChem SCF Module
                                 -----------------


                                 CCSD/daug-cc-pVDZ



  ao basis        = "ao basis"
  functions       =    48
  atoms           =     2
  closed shells   =     5
  open shells     =     0
  charge          =   0.00
  wavefunction    = RHF 
  input vectors   = ./molecule.movecs
  output vectors  = ./molecule.movecs
  use symmetry    = F
  symmetry adapt  = F


 Forming initial guess at       8.3s


 Starting SCF solution at       8.3s



       Final RHF  results 
       ------------------ 

         Total SCF energy =   -100.034453715348
      One-electron energy =   -150.450050586924
      Two-electron energy =     45.241331996097
 Nuclear repulsion energy =      5.174264875478

        Time for solution =      0.1s




                   Four-Index Transformation
                   -------------------------
          Number of basis functions:             48
          Number of shells:                      19
          Number of occupied orbitals:            5
          Number of occ. correlated orbitals:     5
          Block length:                          16
          Superscript MO index range:      1 -    5
          Subscript MO index range:        1 -   48
          MO coefficients read from:  ./molecule.movecs        
          Number of operator matrices in core:   30
          Half-transformed integrals produced

     Pass:    1     Index range:    1  -    5     Time:      0.04


[...]
      One-electron energy =   -150.384762324580
      Two-electron energy =     45.215178902393
 Nuclear repulsion energy =      5.135531322286

        Time for solution =      0.1s




                   Four-Index Transformation
                   -------------------------
          Number of basis functions:             48
          Number of shells:                      19
          Number of occupied orbitals:            5
          Number of occ. correlated orbitals:     5
          Block length:                          16
          Superscript MO index range:      1 -    5
          Subscript MO index range:        1 -   48
          MO coefficients read from:  ./molecule.movecs        
          Number of operator matrices in core:   30
          Half-transformed integrals produced

     Pass:    1     Index range:    1  -    5     Time:      0.04


 ****************************************************************************
              the segmented parallel ccsd program:    5 nodes
 ****************************************************************************




 level of theory    ccsd
 number of core         0
 number of occupied     5
 number of virtual     43
 number of deleted      0
 total functions       48
 number of shells      19
 basis label          566



   ***** ccsd parameters *****
   iprt   =     0
   convi  =  0.100E-05
   maxit  =    20
   mxvec  =     5
 memory             52424180
  Using  1 OpenMP thread(s) in CCSD
  Recompile w/ USE_OPENMP=1 to use threads in CCSD
  Restarting from old vector in ./molecule.t2


-------------------------------------------------------------------------
 iter     correlation     delta       rms       T2     Non-T2      Main
             energy      energy      error      ampl     ampl      Block
                                                time     time      time
-------------------------------------------------------------------------
   1     -0.2364716425 -2.365D-01  1.248D-01     0.11     0.00     0.09
   2     -0.2330001404  3.472D-03  3.971D-02     0.03     0.00     0.02
   3     -0.2359998843 -3.000D-03  1.075D-02     0.03     0.00     0.02
   4     -0.2363604775 -3.606D-04  4.841D-03     0.03     0.00     0.01
   5     -0.2366225145 -2.620D-04  1.345D-03     0.03     0.00     0.02
   6     -0.2366629823 -4.047D-05  4.121D-04     0.04     0.00     0.02
   7     -0.2366587044  4.278D-06  1.591D-04     0.04     0.00     0.02
   8     -0.2366557763  2.928D-06  1.563D-04     0.03     0.00     0.01
   9     -0.2366544228  1.353D-06  3.532D-05     0.03     0.00     0.01
  10     -0.2366542733  1.496D-07  2.410D-05     0.04     0.00     0.02
  11     -0.2366543828 -1.095D-07  3.229D-06     0.03     0.00     0.02
  12     -0.2366544378 -5.502D-08  1.187D-06     0.03     0.00     0.01
  13     -0.2366544969 -5.908D-08  5.528D-07     0.03     0.00     0.02
                  *************converged*************
-------------------------------------------------------------------------

 -----------
 CCSD Energy
 -----------
 Reference energy:            -100.034052099900634
 CCSD corr. energy:             -0.236654496897948
 Total CCSD energy:           -100.270706596798576


 --------------------------------
 Spin Component Scaled (SCS) CCSD
 --------------------------------
 Same spin contribution:                 -0.054625315920006
 Same spin scaling factor:                1.130000000000000
 Opposite spin contribution:             -0.182029180977942
 Opposite spin scaling fact.:             1.270000000000000
 SCS-CCSD correlation energy:            -0.292903666831593
 Total SCS-CCSD energy:                -100.326955766732226

 routine      calls  cpu(0)   cpu-min  cpu-ave  cpu-max   i/o 
 aoccsd          1     0.01     0.01     0.01     0.01    0.00
 iterdrv         1     0.04     0.04     0.04     0.04    0.00
 pampt          13     0.04     0.04     0.04     0.04    0.00
 t2pm           13     0.03     0.03     0.03     0.03    0.00
 sxy            13     0.04     0.04     0.06     0.08    0.00
 ints         7220     0.06     0.05     0.06     0.07    0.00
 f_write        76     0.00     0.00     0.00     0.00    0.00
 t2eri         494     0.12     0.10     0.11     0.12    0.00
 idx2          494     0.03     0.03     0.03     0.03    0.00
 idx34          13     0.00     0.00     0.00     0.00    0.00
 ht2pm          13     0.04     0.04     0.04     0.04    0.00
 itm            13     0.13     0.13     0.13     0.13    0.00
 pdiis          13     0.00     0.00     0.00     0.00    0.00
 r_read        456     0.01     0.01     0.01     0.01    0.00
 Total                 0.56     0.56     0.56     0.56    0.00
 step     1 energy        -100.27070660
                                 NWChem SCF Module
                                 -----------------


                                 CCSD/daug-cc-pVDZ



  ao basis        = "ao basis"
  functions       =    48
  atoms           =     2
  closed shells   =     5
  open shells     =     0
  charge          =   0.00
  wavefunction    = RHF 
  input vectors   = ./molecule.movecs
  output vectors  = ./molecule.movecs
  use symmetry    = F
  symmetry adapt  = F


 Forming initial guess at      46.0s


 Starting SCF solution at      46.0s



       Final RHF  results 
       ------------------ 

         Total SCF energy =   -100.034784492014
      One-electron energy =   -150.526581919331
      Two-electron energy =     45.272021967647
 Nuclear repulsion energy =      5.219775459669

        Time for solution =      0.1s




                   Four-Index Transformation
                   -------------------------
          Number of basis functions:             48
          Number of shells:                      19
          Number of occupied orbitals:            5
          Number of occ. correlated orbitals:     5
          Block length:                          16
          Superscript MO index range:      1 -    5
          Subscript MO index range:        1 -   48
          MO coefficients read from:  ./molecule.movecs        
          Number of operator matrices in core:   30
          Half-transformed integrals produced

     Pass:    1     Index range:    1  -    5     Time:      0.04


 ****************************************************************************
              the segmented parallel ccsd program:    5 nodes
 ****************************************************************************




 level of theory    ccsd
 number of core         0
 number of occupied     5
 number of virtual     43
 number of deleted      0
 total functions       48
 number of shells      19
 basis label          566



   ***** ccsd parameters *****
   iprt   =     0
   convi  =  0.100E-05
   maxit  =    20
   mxvec  =     5
 memory             52424180
  Using  1 OpenMP thread(s) in CCSD
  Recompile w/ USE_OPENMP=1 to use threads in CCSD
  Restarting from old vector in ./molecule.t2


-------------------------------------------------------------------------
 iter     correlation     delta       rms       T2     Non-T2      Main
             energy      energy      error      ampl     ampl      Block
                                                time     time      time
-------------------------------------------------------------------------
   1     -0.2347104542 -2.347D-01  5.809D-02     0.09     0.00     0.08
   2     -0.2347507086 -4.025D-05  2.942D-02     0.03     0.00     0.02
   3     -0.2357153896 -9.647D-04  7.963D-03     0.03     0.00     0.02
   4     -0.2358193243 -1.039D-04  2.842D-03     0.04     0.00     0.02
   5     -0.2358974851 -7.816D-05  5.543D-04     0.04     0.00     0.02
   6     -0.2359029599 -5.475D-06  1.914D-04     0.04     0.00     0.02
   7     -0.2359013673  1.593D-06  2.221D-04     0.03     0.00     0.01
   8     -0.2359011752  1.920D-07  3.213D-05     0.03     0.00     0.02
   9     -0.2359009981  1.771D-07  1.587D-05     0.04     0.00     0.02
  10     -0.2359010087 -1.063D-08  1.911D-06     0.04     0.00     0.02
  11     -0.2359010288 -2.011D-08  5.676D-07     0.03     0.00     0.01
                  *************converged*************
-------------------------------------------------------------------------

 -----------
 CCSD Energy
 -----------
 Reference energy:            -100.034784492014495
 CCSD corr. energy:             -0.235901028845270
 Total CCSD energy:           -100.270685520859772


 --------------------------------
 Spin Component Scaled (SCS) CCSD
 --------------------------------
 Same spin contribution:                 -0.054549340434422
 Same spin scaling factor:                1.130000000000000
 Opposite spin contribution:             -0.181351688410848
 Opposite spin scaling fact.:             1.270000000000000
 SCS-CCSD correlation energy:            -0.291957398972674
 Total SCS-CCSD energy:                -100.326741890987165

 routine      calls  cpu(0)   cpu-min  cpu-ave  cpu-max   i/o 
 aoccsd          1     0.01     0.01     0.01     0.01    0.00
 iterdrv         1     0.04     0.04     0.04     0.04    0.00
 pampt          11     0.04     0.04     0.04     0.04    0.00
 t2pm           11     0.03     0.03     0.03     0.03    0.00
 sxy            11     0.06     0.04     0.05     0.07    0.00
 ints         7220     0.05     0.04     0.05     0.06    0.00
 f_write        76     0.00     0.00     0.00     0.00    0.00
 t2eri         418     0.09     0.08     0.09     0.10    0.00
 idx2          418     0.02     0.02     0.03     0.03    0.00
 idx34          11     0.00     0.00     0.00     0.00    0.00
 ht2pm          11     0.04     0.04     0.04     0.04    0.00
 itm            11     0.11     0.11     0.11     0.11    0.00
 pdiis          11     0.00     0.00     0.00     0.00    0.00
 r_read        380     0.01     0.01     0.01     0.01    0.00
 Total                 0.49     0.49     0.49     0.49    0.00
 step    -1 energy        -100.27068552
            gradient        -0.001054


                         CCSD ENERGY GRADIENTS

    atom               coordinates                        gradient
                 x          y          z           x          y          z
   1 F       0.000000   0.000000  -0.173502    0.000000   0.000000   0.000745
   2 H       0.000000   0.000000   1.564852    0.000000   0.000000  -0.000745


  
  finite difference hessian delta =    1.0000000000000000E-003

              1        2        3        4        5        6      
    1   -0.0000   0.0000   0.0000   0.0001   0.0000   0.0000
    2    0.0000  -0.0000   0.0000   0.0000   0.0001   0.0000
    3    0.0000   0.0000   0.6175   0.0000   0.0000  -0.6192
    4    0.0001   0.0000   0.0000  -0.0001   0.0000   0.0000
    5    0.0000   0.0001   0.0000   0.0000  -0.0001   0.0000
    6    0.0000   0.0000  -0.6192   0.0000   0.0000   0.6192
  


  Vibrational analysis via the FX method 

  See chapter 2 in "Molecular Vibrations" by Wilson, Decius and Cross

  Vib: Default input used 

  Nuclear Hessian passed symmetry test 



 ---------------------------- Atom information ----------------------------
     atom    #        X              Y              Z            mass
 --------------------------------------------------------------------------
    F        1  0.0000000D+00  0.0000000D+00 -1.7350206D-01  1.8998400D+01
    H        2  0.0000000D+00  0.0000000D+00  1.5658522D+00  1.0078250D+00
 --------------------------------------------------------------------------




          ----------------------------------------------------
          MASS-WEIGHTED NUCLEAR HESSIAN (Hartree/Bohr/Bohr/Kamu)
          ----------------------------------------------------


               1            2            3            4            5            6
   ----- ----- ----- ----- -----
    1   -2.13190D-03
    2    0.00000D+00 -2.05114D-03
    3    0.00000D+00  0.00000D+00  3.25016D+01
    4    1.65236D-02  0.00000D+00  0.00000D+00 -7.17415D-02
    5    0.00000D+00  1.64459D-02  0.00000D+00  0.00000D+00 -7.14041D-02
    6    0.00000D+00  0.00000D+00 -1.41514D+02  0.00000D+00  0.00000D+00  6.14421D+02



          -------------------------------------------------
          NORMAL MODE EIGENVECTORS IN CARTESIAN COORDINATES
          -------------------------------------------------
                 (Frequencies expressed in cm-1)

                    1           2           3           4           5           6
 
 Frequency        -48.07      -44.66      -44.55        6.48        6.61     4134.85
 
           1     0.00000    -0.05043     0.00000     0.22381     0.00000     0.00000
           2     0.00000     0.00000    -0.05039     0.00000     0.22382     0.00000
           3     0.22357     0.00000     0.00000     0.00000     0.00000    -0.05149
           4     0.00000     0.97175     0.00000     0.21896     0.00000     0.00000
           5     0.00000     0.00000     0.97179     0.00000     0.21877     0.00000
           6     0.22354     0.00000     0.00000     0.00000     0.00000     0.97070


        Vibrational analysis via the FX method 
  --- with translations and rotations projected out ---
  --- via the Eckart algorithm                      ---
 Dependent rotation vector no.                    3
  found in ECKART; assuming linear geometry

          --------------------------------------------------------
          MASS-WEIGHTED PROJECTED HESSIAN (Hartree/Bohr/Bohr/Kamu)
          --------------------------------------------------------


               1            2            3            4            5            6
   ----- ----- ----- ----- -----
    1    0.00000D+00
    2    0.00000D+00  0.00000D+00
    3    0.00000D+00  0.00000D+00  3.25707D+01
    4    0.00000D+00  0.00000D+00  0.00000D+00  0.00000D+00
    5    0.00000D+00  3.09720D-18  0.00000D+00  0.00000D+00  0.00000D+00
    6    0.00000D+00  0.00000D+00 -1.41414D+02  0.00000D+00  0.00000D+00  6.13987D+02

 center of mass
 --------------
 x =   0.00000000 y =   0.00000000 z =  -0.08588110

 moments of inertia (a.u.)
 ------------------
           2.895430089058           0.000000000000           0.000000000000
           0.000000000000           2.895430089058           0.000000000000
           0.000000000000           0.000000000000           0.000000000000

 Rotational Constants
 --------------------
 A=   0.000000 cm-1  (  0.000000 K)
 B=  20.791445 cm-1  ( 29.913583 K)
 C=  20.791445 cm-1  ( 29.913583 K)


 Temperature                      =   298.15K
 frequency scaling parameter      =   1.0000


 Linear Molecule                   

 Zero-Point correction to Energy  =    5.906 kcal/mol  (  0.009412 au)
 Thermal correction to Energy     =    7.387 kcal/mol  (  0.011771 au)
 Thermal correction to Enthalpy   =    7.979 kcal/mol  (  0.012715 au)

 Total Entropy                    =   41.459 cal/mol-K
   - Translational                =   34.906 cal/mol-K (mol. weight =  20.0062)
   - Rotational                   =    6.554 cal/mol-K (symmetry #  =        1)
   - Vibrational                  =    0.000 cal/mol-K

 Cv (constant volume heat capacity) =    4.966 cal/mol-K
   - Translational                  =    2.979 cal/mol-K
   - Rotational                     =    1.986 cal/mol-K
   - Vibrational                    =    0.000 cal/mol-K



          -------------------------------------------------
          NORMAL MODE EIGENVECTORS IN CARTESIAN COORDINATES
          -------------------------------------------------
             (Projected Frequencies expressed in cm-1)

                    1           2           3           4           5           6
 
 P.Frequency       -0.00       -0.00        0.00        0.00        0.00     4133.40
 
           1     0.00000     0.00000     0.22943     0.00000     0.00000     0.00000
           2     0.00000     0.16223     0.00000     0.00000     0.16223     0.00000
           3     0.22357     0.00000     0.00000     0.00000     0.00000    -0.05149
           4     0.00000     0.00000     0.00000     0.99611     0.00000     0.00000
           5     0.00000    -0.70436     0.00000     0.00000     0.70436     0.00000
           6     0.22357     0.00000     0.00000     0.00000     0.00000     0.97070
 vib:animation  F


                                NWChem Input Module
                                -------------------




                                     CITATION
                                     --------
                Please cite the following reference when publishing
                           results obtained with NWChem:

          E. Apra, E. J. Bylaska, W. A. de Jong, N. Govind, K. Kowalski,
       T. P. Straatsma, M. Valiev, H. J. J. van Dam, Y. Alexeev, J. Anchell,
       V. Anisimov, F. W. Aquino, R. Atta-Fynn, J. Autschbach, N. P. Bauman,
     J. C. Becca, D. E. Bernholdt, K. Bhaskaran-Nair, S. Bogatko, P. Borowski,
         J. Boschen, J. Brabec, A. Bruner, E. Cauet, Y. Chen, G. N. Chuev,
      C. J. Cramer, J. Daily, M. J. O. Deegan, T. H. Dunning Jr., M. Dupuis,
   K. G. Dyall, G. I. Fann, S. A. Fischer, A. Fonari, H. Fruchtl, L. Gagliardi,
      J. Garza, N. Gawande, S. Ghosh, K. Glaesemann, A. W. Gotz, J. Hammond,
       V. Helms, E. D. Hermes, K. Hirao, S. Hirata, M. Jacquelin, L. Jensen,
   B. G. Johnson, H. Jonsson, R. A. Kendall, M. Klemm, R. Kobayashi, V. Konkov,
      S. Krishnamoorthy, M. Krishnan, Z. Lin, R. D. Lins, R. J. Littlefield,
      A. J. Logsdail, K. Lopata, W. Ma, A. V. Marenich, J. Martin del Campo,
   D. Mejia-Rodriguez, J. E. Moore, J. M. Mullin, T. Nakajima, D. R. Nascimento,
    J. A. Nichols, P. J. Nichols, J. Nieplocha, A. Otero-de-la-Roza, B. Palmer,
    A. Panyala, T. Pirojsirikul, B. Peng, R. Peverati, J. Pittner, L. Pollack,
   R. M. Richard, P. Sadayappan, G. C. Schatz, W. A. Shelton, D. W. Silverstein,
   D. M. A. Smith, T. A. Soares, D. Song, M. Swart, H. L. Taylor, G. S. Thomas,
            V. Tipparaju, D. G. Truhlar, K. Tsemekhman, T. Van Voorhis,
      A. Vazquez-Mayagoitia, P. Verma, O. Villa, A. Vishnu, K. D. Vogiatzis,
        D. Wang, J. H. Weare, M. J. Williamson, T. L. Windus, K. Wolinski,
        A. T. Wong, Q. Wu, C. Yang, Q. Yu, M. Zacharias, Z. Zhang, Y. Zhao,
                                and R. J. Harrison
                        "NWChem: Past, present, and future
                         J. Chem. Phys. 152, 184102 (2020)
                               doi:10.1063/5.0004997

                                      AUTHORS
                                      -------
  E. Apra, E. J. Bylaska, N. Govind, K. Kowalski, M. Valiev, D. Mejia-Rodriguez,
       A. Kunitsa, N. P. Bauman, A. Panyala, W. A. de Jong, T. P. Straatsma,
   H. J. J. van Dam, D. Wang, T. L. Windus, J. Hammond, J. Autschbach, A. Woods,
    K. Bhaskaran-Nair, J. Brabec, K. Lopata, S. A. Fischer, S. Krishnamoorthy,
     M. Jacquelin, W. Ma, M. Klemm, O. Villa, Y. Chen, V. Anisimov, F. Aquino,
     S. Hirata, M. T. Hackler, E. Hermes, L. Jensen, J. E. Moore, J. C. Becca,
      V. Konjkov, T. Risthaus, M. Malagoli, A. Marenich, A. Otero-de-la-Roza,
        J. Mullin, P. Nichols, R. Peverati, J. Pittner, Y. Zhao, P.-D. Fan,
        A. Fonari, M. J. Williamson, R. J. Harrison, J. R. Rehr, M. Dupuis,
     D. Silverstein, D. M. A. Smith, J. Nieplocha, V. Tipparaju, M. Krishnan,
     B. E. Van Kuiken, A. Vazquez-Mayagoitia, M. Swart, Q. Wu, T. Van Voorhis,
     A. A. Auer, M. Nooijen, L. D. Crosby, E. Brown, G. Cisneros, G. I. Fann,
   H. Fruchtl, J. Garza, K. Hirao, R. A. Kendall, J. A. Nichols, K. Tsemekhman,
    K. Wolinski, J. Anchell, D. E. Bernholdt, P. Borowski, T. Clark, D. Clerc,
   H. Dachsel, M. J. O. Deegan, K. Dyall, D. Elwood, E. Glendening, M. Gutowski,
   A. C. Hess, J. Jaffe, B. G. Johnson, J. Ju, R. Kobayashi, R. Kutteh, Z. Lin,
   R. Littlefield, X. Long, B. Meng, T. Nakajima, S. Niu, L. Pollack, M. Rosing,
   K. Glaesemann, G. Sandrone, M. Stave, H. Taylor, G. Thomas, J. H. van Lenthe,
                               A. T. Wong, Z. Zhang.

 Total times  cpu:       44.0s     wall:       46.7s
