 argument  1 = /home/miroi/work/projects/Molecular-and-Materials-Modeling-2026-Winter/molecular-modeling/06_HF_molecule_properties/nwchem/ccsd_properties/ccsd_geomopt_freq/HF.daug-cc-pVDZ_ccsd_geopt_freq.nw



============================== echo of input deck ==============================
echo

start molecule

title "CCSD/daug-cc-pVDZ"
charge 0

print low

geometry units angstroms print xyz
SYMMETRY c2v
F      0.0  0.0   0.0
H      0.0  0.0   0.921
end

basis
  * library d-aug-cc-pvdz
end

scf
  print low
end

# Activate the CCSD module block
ccsd
  freeze core
end

driver
  xyz HFccsd_geom
end

set ccsd:use_ccsd_omp T

task ccsd optimize
task ccsd frequencies
================================================================================


                                         
                                         


             Northwest Computational Chemistry Package (NWChem) 7.2.2
             --------------------------------------------------------


                    Environmental Molecular Sciences Laboratory
                       Pacific Northwest National Laboratory
                                Richland, WA 99352

                              Copyright (c) 1994-2022
                       Pacific Northwest National Laboratory
                            Battelle Memorial Institute

             NWChem is an open-source computational chemistry package
                        distributed under the terms of the
                      Educational Community License (ECL) 2.0
             A copy of the license is included with this distribution
                              in the LICENSE.TXT file

                                  ACKNOWLEDGMENT
                                  --------------

            This software and its documentation were developed at the
            EMSL at Pacific Northwest National Laboratory, a multiprogram
            national laboratory, operated for the U.S. Department of Energy
            by Battelle under Contract Number DE-AC05-76RL01830. Support
            for this work was provided by the Department of Energy Office
            of Biological and Environmental Research, Office of Basic
            Energy Sciences, and the Office of Advanced Scientific Computing.


           Job information
           ---------------

    hostname        = MIRO
    program         = /usr/bin/nwchem
    date            = Sat Feb 21 01:03:38 2026

    compiled        = Mon_Apr_01_11:12:32_2024
    source          = /build/nwchem-qbYJLs/nwchem-7.2.2/build-openmpi
    nwchem branch   = 7.2.2
    nwchem revision = N/A
    ga revision     = N/A
    use scalapack   = T
    input           = /home/miroi/work/projects/Molecular-and-Materials-Modeling-2026-Winter/molecular-modeling/06_HF_molecule_properties/nwchem/ccsd_properties/ccsd_geomopt_freq/HF.daug-cc-pVDZ_ccsd_geopt_freq.nw
    prefix          = molecule.
    data base       = ./molecule.db
    status          = startup
    nproc           =        6
    time left       =     -1s



           Memory information
           ------------------

    heap     =   26214394 doubles =    200.0 Mbytes
    stack    =   26214399 doubles =    200.0 Mbytes
    global   =   52428800 doubles =    400.0 Mbytes (distinct from heap & stack)
    total    =  104857593 doubles =    800.0 Mbytes
    verify   = yes
    hardfail = no 


           Directory information
           ---------------------

  0 permanent = .
  0 scratch   = .




                                NWChem Input Module
                                -------------------


                                 CCSD/daug-cc-pVDZ
                                 -----------------

 Scaling coordinates for geometry "geometry" by  1.889725989
 (inverse scale =  0.529177249)

 Turning off AUTOSYM since
 SYMMETRY directive was detected!


          ------
          auto-z
          ------
  no constraints, skipping    0.0000000000000000     
  no constraints, skipping    0.0000000000000000     


                             Geometry "geometry" -> ""
                             -------------------------

 Output coordinates in angstroms (scale by  1.889725989 to convert to a.u.)

  No.       Tag          Charge          X              Y              Z
 ---- ---------------- ---------- -------------- -------------- --------------
    1 F                    9.0000     0.00000000     0.00000000    -0.09210000
    2 H                    1.0000     0.00000000     0.00000000     0.82890000

      Atomic Mass 
      ----------- 

      F                 18.998400
      H                  1.007825


 Effective nuclear repulsion energy (a.u.)       5.1711131824

            Nuclear Dipole moment (a.u.) 
            ----------------------------
        X                 Y               Z
 ---------------- ---------------- ----------------
     0.0000000000     0.0000000000     0.0000000000

      Symmetry information
      --------------------

 Group name             C2v       
 Group number             16
 Group order               4
 No. of unique centers     2

      Symmetry unique atoms

     1    2



                                Z-matrix (autoz)
                                -------- 

 Units are Angstrom for bonds and degrees for angles

      Type          Name      I     J     K     L     M      Value
      ----------- --------  ----- ----- ----- ----- ----- ----------
    1 Stretch                  1     2                       0.92100


            XYZ format geometry
            -------------------
     2
 geometry
 F                     0.00000000     0.00000000    -0.09210000
 H                     0.00000000     0.00000000     0.82890000

 ==============================================================================
                                internuclear distances
 ------------------------------------------------------------------------------
       center one      |      center two      | atomic units |  angstroms
 ------------------------------------------------------------------------------
    2 H                |   1 F                |     1.74044  |     0.92100
 ------------------------------------------------------------------------------
                         number of included internuclear distances:          1
 ==============================================================================





 Summary of "ao basis" -> "" (cartesian)
 ------------------------------------------------------------------------------
       Tag                 Description            Shells   Functions and Types
 ---------------- ------------------------------  ------  ---------------------
 *                       d-aug-cc-pvdz                on all atoms 




                           NWChem Geometry Optimization
                           ----------------------------




                                 CCSD/daug-cc-pVDZ


  no constraints, skipping    0.0000000000000000     
 maximum gradient threshold         (gmax) =   0.000450
 rms gradient threshold             (grms) =   0.000300
 maximum cartesian step threshold   (xmax) =   0.001800
 rms cartesian step threshold       (xrms) =   0.001200
 fixed trust radius                (trust) =   0.300000
 maximum step size to saddle      (sadstp) =   0.100000
 energy precision                  (eprec) =   1.0D-07
 maximum number of steps          (nptopt) =   40
 initial hessian option           (inhess) =    0
 line search option               (linopt) =    1
 hessian update option            (modupd) =    1
 saddle point option              (modsad) =    0
 initial eigen-mode to follow     (moddir) =    0
 initial variable to follow       (vardir) =    0
 follow first negative mode     (firstneg) =    T
 apply conjugacy                    (opcg) =    F
 source of zmatrix                         =   autoz   


          -------------------
          Energy Minimization
          -------------------


 Names of Z-matrix variables 
    1         

 Variables with the same non-blank name are constrained to be equal


 Using diagonal initial Hessian 
 Scaling for Hessian diagonals: bonds = 1.00  angles = 0.25  torsions = 0.10

          --------
          Step   0
          --------
                         NWChem Numerical Gradients Module
                         ---------------------------------


 No. of totally-symmetric internal modes =   1

                      Basis "ao basis" -> "ao basis" (cartesian)
                      -----
  F (Fluorine)
  ------------
            Exponent  Coefficients 
       -------------- ---------------------------------------------------------
  1 S  1.47100000E+04  0.000721
  1 S  2.20700000E+03  0.005553
  1 S  5.02800000E+02  0.028267
  1 S  1.42600000E+02  0.106444
  1 S  4.64700000E+01  0.286814
  1 S  1.67000000E+01  0.448641
  1 S  6.35600000E+00  0.264761
  1 S  1.31600000E+00  0.015333

  2 S  1.47100000E+04 -0.000165
  2 S  2.20700000E+03 -0.001308
  2 S  5.02800000E+02 -0.006495
  2 S  1.42600000E+02 -0.026691
  2 S  4.64700000E+01 -0.073690
  2 S  1.67000000E+01 -0.170776
  2 S  6.35600000E+00 -0.112327
  2 S  1.31600000E+00  0.562814

  3 S  3.89700000E-01  1.000000

  4 S  9.86300000E-02  1.000000

  5 S  2.50000000E-02  1.000000

  6 P  2.26700000E+01  0.044878
  6 P  4.97700000E+00  0.235718
  6 P  1.34700000E+00  0.508521

  7 P  3.47100000E-01  1.000000

  8 P  8.50200000E-02  1.000000

  9 P  2.08000000E-02  1.000000

 10 D  1.64000000E+00  1.000000

 11 D  4.64000000E-01  1.000000

 12 D  1.31000000E-01  1.000000

  H (Hydrogen)
  ------------
            Exponent  Coefficients 
       -------------- ---------------------------------------------------------
  1 S  1.30100000E+01  0.019685
  1 S  1.96200000E+00  0.137977
  1 S  4.44600000E-01  0.478148

  2 S  1.22000000E-01  1.000000

  3 S  2.97400000E-02  1.000000

  4 S  7.25000000E-03  1.000000

  5 P  7.27000000E-01  1.000000

  6 P  1.41000000E-01  1.000000

  7 P  2.73000000E-02  1.000000



 Summary of "ao basis" -> "ao basis" (cartesian)
 ------------------------------------------------------------------------------
       Tag                 Description            Shells   Functions and Types
 ---------------- ------------------------------  ------  ---------------------
 F                       d-aug-cc-pvdz              12       35   5s4p3d
 H                       d-aug-cc-pvdz               7       13   4s3p


                                 NWChem SCF Module
                                 -----------------


                                 CCSD/daug-cc-pVDZ



  ao basis        = "ao basis"
  functions       =    48
  atoms           =     2
  closed shells   =     5
  open shells     =     0
  charge          =   0.00
  wavefunction    = RHF 
  input vectors   = atomic
  output vectors  = ./molecule.movecs
  use symmetry    = T
  symmetry adapt  = T


 Forming initial guess at       0.1s


 !! scf_movecs_sym_adapt:   26 vectors were symmetry contaminated

  Symmetry fudging

 !! scf_movecs_sym_adapt:   24 vectors were symmetry contaminated


 Starting SCF solution at       0.1s



       Final RHF  results 
       ------------------ 

         Total SCF energy =   -100.034425153678
      One-electron energy =   -150.444743421213
      Two-electron energy =     45.239205085127
 Nuclear repulsion energy =      5.171113182407

        Time for solution =      0.1s




                   Four-Index Transformation
                   -------------------------
          Number of basis functions:             48
          Number of shells:                      19
          Number of occupied orbitals:            5
          Number of occ. correlated orbitals:     5
          Block length:                          16
          Superscript MO index range:      1 -    5
          Subscript MO index range:        1 -   48
          MO coefficients read from:  ./molecule.movecs        
          Number of operator matrices in core:   30
          Half-transformed integrals produced

     Pass:    1     Index range:    1  -    5     Time:      0.03


 ****************************************************************************
              the segmented parallel ccsd program:    6 nodes
 ****************************************************************************




 level of theory    ccsd
 number of core         0
 number of occupied     5
 number of virtual     43
 number of deleted      0
 total functions       48
 number of shells      19
 basis label          566



   ***** ccsd parameters *****
   iprt   =     0
   convi  =  0.100E-05
   maxit  =    20
   mxvec  =     5
 memory             52424228
  Using  1 OpenMP thread(s) in CCSD
  Recompile w/ USE_OPENMP=1 to use threads in CCSD
  IO offset    20.000000000000000     
  IO error message >End of File
  file_read_ga: failing reading from ./molecule.t2
  Failed reading restart vector from ./molecule.t2
  Using MP2 initial guess vector 


-------------------------------------------------------------------------
 iter     correlation     delta       rms       T2     Non-T2      Main
             energy      energy      error      ampl     ampl      Block
                                                time     time      time
-------------------------------------------------------------------------
   1     -0.2312092713 -2.312D-01  4.088D-02     0.09     0.00     0.07
   2     -0.2357934161 -4.584D-03  3.651D-02     0.03     0.00     0.01
   3     -0.2357881619  5.254D-06  7.132D-03     0.03     0.00     0.02
   4     -0.2362926804 -5.045D-04  5.513D-04     0.03     0.00     0.01
   5     -0.2363366259 -4.395D-05  1.202D-03     0.03     0.00     0.01
   6     -0.2363333331  3.293D-06  5.996D-05     0.04     0.00     0.02
   7     -0.2363329707  3.623D-07  8.444D-05     0.03     0.00     0.01
   8     -0.2363332570 -2.862D-07  2.902D-06     0.03     0.00     0.01
   9     -0.2363329873  2.696D-07  4.284D-06     0.03     0.00     0.02
  10     -0.2363330007 -1.340D-08  2.315D-07     0.03     0.00     0.01
                  *************converged*************
-------------------------------------------------------------------------

 -----------
 CCSD Energy
 -----------
 Reference energy:            -100.034425153678242
 CCSD corr. energy:             -0.236333000733089
 Total CCSD energy:           -100.270758154411325


 --------------------------------
 Spin Component Scaled (SCS) CCSD
 --------------------------------
 Same spin contribution:                 -0.054593270696760
 Same spin scaling factor:                1.130000000000000
 Opposite spin contribution:             -0.181739730036328
 Opposite spin scaling fact.:             1.270000000000000
 SCS-CCSD correlation energy:            -0.292499853033476
 Total SCS-CCSD energy:                -100.326925006711718

 routine      calls  cpu(0)   cpu-min  cpu-ave  cpu-max   i/o 
 aoccsd          1     0.00     0.00     0.00     0.00    0.00
 iterdrv         1     0.04     0.04     0.04     0.04    0.00
 pampt          10     0.03     0.03     0.03     0.03    0.00
 t2pm           10     0.02     0.02     0.02     0.02    0.00
 sxy            10     0.02     0.01     0.03     0.04    0.00
 ints         6080     0.05     0.04     0.05     0.05    0.00
 f_write        64     0.00     0.00     0.00     0.00    0.00
 t2eri         320     0.08     0.08     0.08     0.09    0.00
 idx2          320     0.03     0.03     0.03     0.03    0.00
 idx34          10     0.00     0.00     0.00     0.00    0.00
 ht2pm          10     0.03     0.03     0.03     0.03    0.00
 itm            10     0.10     0.10     0.10     0.10    0.00
 pdiis          10     0.00     0.00     0.00     0.00    0.00
 r_read        288     0.01     0.01     0.01     0.01    0.00
 Total                 0.43     0.43     0.43     0.43    0.00
 Reference energy        -100.27075815

 Finite difference step  1.00000D-02
 Use five point formula F

                                 NWChem SCF Module
                                 -----------------


                                 CCSD/daug-cc-pVDZ



  ao basis        = "ao basis"
  functions       =    48
  atoms           =     2
  closed shells   =     5
  open shells     =     0
  charge          =   0.00
  wavefunction    = RHF 
  input vectors   = ./molecule.movecs
  output vectors  = ./molecule.movecs
  use symmetry    = T
  symmetry adapt  = T


 Forming initial guess at       0.8s


 Starting SCF solution at       0.8s



       Final RHF  results 
       ------------------ 

         Total SCF energy =   -100.033978856935
      One-electron energy =   -150.374471006319
      Two-electron energy =     45.211058795478
 Nuclear repulsion energy =      5.129433353906

        Time for solution =      0.1s




                   Four-Index Transformation
                   -------------------------
          Number of basis functions:             48
          Number of shells:                      19
          Number of occupied orbitals:            5
          Number of occ. correlated orbitals:     5
          Block length:                          16
          Superscript MO index range:      1 -    5
          Subscript MO index range:        1 -   48
          MO coefficients read from:  ./molecule.movecs        
          Number of operator matrices in core:   30
          Half-transformed integrals produced

     Pass:    1     Index range:    1  -    5     Time:      0.03


 ****************************************************************************
              the segmented parallel ccsd program:    6 nodes
 ****************************************************************************




 level of theory    ccsd
 number of core         0
 number of occupied     5
 number of virtual     43
 number of deleted      0
 total functions       48
 number of shells      19
 basis label          566



   ***** ccsd parameters *****
   iprt   =     0
   convi  =  0.100E-05
   maxit  =    20
   mxvec  =     5
 memory             52424228
  Using  1 OpenMP thread(s) in CCSD
  Recompile w/ USE_OPENMP=1 to use threads in CCSD
  Restarting from old vector in ./molecule.t2


-------------------------------------------------------------------------
 iter     correlation     delta       rms       T2     Non-T2      Main
             energy      energy      error      ampl     ampl      Block
                                                time     time      time
-------------------------------------------------------------------------
   1     -0.2392728442 -2.393D-01  1.293D-01     0.08     0.00     0.06
   2     -0.2335998166  5.673D-03  2.005D-02     0.04     0.00     0.01
   3     -0.2364242918 -2.824D-03  5.072D-03     0.04     0.00     0.01
   4     -0.2364783390 -5.405D-05  3.376D-03     0.04     0.00     0.01
   5     -0.2366678475 -1.895D-04  8.409D-04     0.03     0.00     0.01
   6     -0.2367116657 -4.382D-05  3.243D-04     0.03     0.00     0.01
   7     -0.2367127785 -1.113D-06  1.794D-04     0.03     0.00     0.01
   8     -0.2367116145  1.164D-06  1.944D-04     0.03     0.00     0.02
   9     -0.2367103523  1.262D-06  4.261D-05     0.03     0.00     0.02
  10     -0.2367100519  3.004D-07  2.023D-05     0.03     0.00     0.02
  11     -0.2367100070  4.494D-08  2.791D-06     0.03     0.00     0.02
  12     -0.2367100415 -3.453D-08  1.093D-06     0.04     0.00     0.02
  13     -0.2367100811 -3.959D-08  2.750D-07     0.03     0.00     0.01
                  *************converged*************
-------------------------------------------------------------------------

 -----------
 CCSD Energy
 -----------
 Reference energy:            -100.033978856934510
 CCSD corr. energy:             -0.236710081124850
 Total CCSD energy:           -100.270688938059365


 --------------------------------
 Spin Component Scaled (SCS) CCSD
 --------------------------------
 Same spin contribution:                 -0.054630791037278
 Same spin scaling factor:                1.130000000000000
 Opposite spin contribution:             -0.182079290087572
 Opposite spin scaling fact.:             1.270000000000000
 SCS-CCSD correlation energy:            -0.292973492283341
 Total SCS-CCSD energy:                -100.326952349217848

 routine      calls  cpu(0)   cpu-min  cpu-ave  cpu-max   i/o 
 aoccsd          1     0.01     0.01     0.01     0.01    0.00
 iterdrv         1     0.04     0.04     0.04     0.04    0.00
 pampt          13     0.05     0.05     0.05     0.05    0.00
 t2pm           13     0.03     0.03     0.03     0.03    0.00
 sxy            13     0.02     0.02     0.04     0.05    0.00
 ints         6080     0.05     0.04     0.04     0.05    0.00
 f_write        64     0.00     0.00     0.00     0.00    0.00
 t2eri         416     0.12     0.10     0.11     0.12    0.00
 idx2          416     0.04     0.04     0.04     0.04    0.00
 idx34          13     0.00     0.00     0.00     0.00    0.00
 ht2pm          13     0.04     0.04     0.04     0.04    0.00
 itm            13     0.13     0.13     0.13     0.13    0.00
 pdiis          13     0.00     0.00     0.00     0.00    0.00
 r_read        384     0.01     0.01     0.01     0.01    0.00
 Total                 0.54     0.54     0.54     0.54    0.00
 step     1 energy        -100.27068894
                                 NWChem SCF Module
                                 -----------------


                                 CCSD/daug-cc-pVDZ



  ao basis        = "ao basis"
  functions       =    48
  atoms           =     2
  closed shells   =     5
  open shells     =     0
  charge          =   0.00
  wavefunction    = RHF 
  input vectors   = ./molecule.movecs
  output vectors  = ./molecule.movecs
  use symmetry    = T
  symmetry adapt  = T


 Forming initial guess at       1.6s


 Starting SCF solution at       1.6s



       Final RHF  results 
       ------------------ 

         Total SCF energy =   -100.034747832555
      One-electron energy =   -150.516000165116
      Two-electron energy =     45.267776423750
 Nuclear repulsion energy =      5.213475908810

        Time for solution =      0.1s




                   Four-Index Transformation
                   -------------------------
          Number of basis functions:             48
          Number of shells:                      19
          Number of occupied orbitals:            5
          Number of occ. correlated orbitals:     5
          Block length:                          16
          Superscript MO index range:      1 -    5
          Subscript MO index range:        1 -   48
          MO coefficients read from:  ./molecule.movecs        
          Number of operator matrices in core:   30
          Half-transformed integrals produced

     Pass:    1     Index range:    1  -    5     Time:      0.04


 ****************************************************************************
              the segmented parallel ccsd program:    6 nodes
 ****************************************************************************




 level of theory    ccsd
 number of core         0
 number of occupied     5
 number of virtual     43
 number of deleted      0
 total functions       48
 number of shells      19
 basis label          566



   ***** ccsd parameters *****
   iprt   =     0
   convi  =  0.100E-05
   maxit  =    20
   mxvec  =     5
 memory             52424228
  Using  1 OpenMP thread(s) in CCSD
  Recompile w/ USE_OPENMP=1 to use threads in CCSD
  Restarting from old vector in ./molecule.t2


-------------------------------------------------------------------------
 iter     correlation     delta       rms       T2     Non-T2      Main
             energy      energy      error      ampl     ampl      Block
                                                time     time      time
-------------------------------------------------------------------------
   1     -0.2346491847 -2.346D-01  7.431D-02     0.10     0.00     0.08
   2     -0.2350529068 -4.037D-04  2.513D-02     0.05     0.00     0.02
   3     -0.2359109018 -8.580D-04  6.736D-03     0.03     0.00     0.02
   4     -0.2358798024  3.110D-05  4.272D-03     0.04     0.00     0.02
   5     -0.2359388163 -5.901D-05  8.786D-04     0.04     0.00     0.02
   6     -0.2359562300 -1.741D-05  1.620D-04     0.03     0.00     0.02
   7     -0.2359557911  4.390D-07  2.985D-05     0.03     0.00     0.02
   8     -0.2359564361 -6.451D-07  1.222D-05     0.03     0.00     0.01
   9     -0.2359564183  1.788D-08  1.467D-05     0.03     0.00     0.02
  10     -0.2359564337 -1.539D-08  1.154D-06     0.03     0.00     0.02
  11     -0.2359564552 -2.158D-08  1.499D-07     0.03     0.00     0.02
                  *************converged*************
-------------------------------------------------------------------------

 -----------
 CCSD Energy
 -----------
 Reference energy:            -100.034747832555482
 CCSD corr. energy:             -0.235956455234030
 Total CCSD energy:           -100.270704287789513


 --------------------------------
 Spin Component Scaled (SCS) CCSD
 --------------------------------
 Same spin contribution:                 -0.054555037210418
 Same spin scaling factor:                1.130000000000000
 Opposite spin contribution:             -0.181401418023612
 Opposite spin scaling fact.:             1.270000000000000
 SCS-CCSD correlation energy:            -0.292026992937760
 Total SCS-CCSD energy:                -100.326774825493246

 routine      calls  cpu(0)   cpu-min  cpu-ave  cpu-max   i/o 
 aoccsd          1     0.00     0.00     0.00     0.00    0.00
 iterdrv         1     0.04     0.04     0.04     0.04    0.00
 pampt          11     0.04     0.04     0.04     0.04    0.00
 t2pm           11     0.03     0.03     0.03     0.03    0.00
 sxy            11     0.03     0.03     0.04     0.05    0.00
 ints         6080     0.05     0.05     0.05     0.06    0.00
 f_write        64     0.00     0.00     0.00     0.00    0.00
 t2eri         352     0.10     0.09     0.09     0.10    0.00
 idx2          352     0.04     0.03     0.04     0.04    0.00
 idx34          11     0.00     0.00     0.00     0.00    0.00
 ht2pm          11     0.04     0.04     0.04     0.04    0.00
 itm            11     0.11     0.11     0.11     0.11    0.00
 pdiis          11     0.00     0.00     0.00     0.00    0.00
 r_read        320     0.01     0.01     0.01     0.01    0.00
 Total                 0.50     0.50     0.50     0.50    0.00
 step    -1 energy        -100.27070429
            gradient         0.000767


                         CCSD ENERGY GRADIENTS

    atom               coordinates                        gradient
                 x          y          z           x          y          z
   1 F       0.000000   0.000000  -0.174044    0.000000   0.000000  -0.000543
   2 H       0.000000   0.000000   1.566394    0.000000   0.000000   0.000543


  no constraints, skipping    0.0000000000000000     

@ Step       Energy      Delta E   Gmax     Grms     Xrms     Xmax   Walltime
@ ---- ---------------- -------- -------- -------- -------- -------- --------
@    0    -100.27075815  0.0D+00  0.00054  0.00054  0.00000  0.00000      2.3
                                                                    

  no constraints, skipping    0.0000000000000000     
  no constraints, skipping    0.0000000000000000     
  no constraints, skipping    0.0000000000000000     
                                 NWChem SCF Module
                                 -----------------


                                 CCSD/daug-cc-pVDZ



  ao basis        = "ao basis"
  functions       =    48
  atoms           =     2
  closed shells   =     5
  open shells     =     0
  charge          =   0.00
  wavefunction    = RHF 
  input vectors   = ./molecule.movecs
  output vectors  = ./molecule.movecs
  use symmetry    = T
  symmetry adapt  = T


 Forming initial guess at       2.3s


 Starting SCF solution at       2.3s



       Final RHF  results 
       ------------------ 

         Total SCF energy =   -100.034468836337
      One-electron energy =   -150.452916413930
      Two-electron energy =     45.242480608716
 Nuclear repulsion energy =      5.175966968877

        Time for solution =      0.1s




                   Four-Index Transformation
                   -------------------------
          Number of basis functions:             48
          Number of shells:                      19
          Number of occupied orbitals:            5
          Number of occ. correlated orbitals:     5
          Block length:                          16
          Superscript MO index range:      1 -    5
          Subscript MO index range:        1 -   48
          MO coefficients read from:  ./molecule.movecs        
          Number of operator matrices in core:   30
          Half-transformed integrals produced

     Pass:    1     Index range:    1  -    5     Time:      0.03


 ****************************************************************************
              the segmented parallel ccsd program:    6 nodes
 ****************************************************************************




 level of theory    ccsd
 number of core         0
 number of occupied     5
 number of virtual     43
 number of deleted      0
 total functions       48
 number of shells      19
 basis label          566



   ***** ccsd parameters *****
   iprt   =     0
   convi  =  0.100E-05
   maxit  =    20
   mxvec  =     5
 memory             52424404
  Using  1 OpenMP thread(s) in CCSD
  Recompile w/ USE_OPENMP=1 to use threads in CCSD
  Restarting from old vector in ./molecule.t2


-------------------------------------------------------------------------
 iter     correlation     delta       rms       T2     Non-T2      Main
             energy      energy      error      ampl     ampl      Block
                                                time     time      time
-------------------------------------------------------------------------
   1     -0.2388726649 -2.389D-01  1.088D-01     0.09     0.00     0.07
   2     -0.2344321705  4.440D-03  5.340D-02     0.03     0.00     0.02
   3     -0.2363596439 -1.927D-03  1.108D-02     0.04     0.00     0.02
   4     -0.2361830755  1.766D-04  2.994D-03     0.04     0.00     0.02
   5     -0.2362745741 -9.150D-05  2.022D-04     0.04     0.00     0.02
   6     -0.2362885015 -1.393D-05  3.969D-04     0.04     0.00     0.02
   7     -0.2362900788 -1.577D-06  5.787D-05     0.04     0.00     0.02
   8     -0.2362895573  5.215D-07  1.840D-05     0.03     0.00     0.02
   9     -0.2362894689  8.841D-08  1.103D-05     0.03     0.00     0.02
  10     -0.2362895139 -4.500D-08  2.313D-06     0.04     0.00     0.02
  11     -0.2362895157 -1.847D-09  8.185D-07     0.03     0.00     0.02
                  *************converged*************
-------------------------------------------------------------------------

 -----------
 CCSD Energy
 -----------
 Reference energy:            -100.034468836337396
 CCSD corr. energy:             -0.236289515700626
 Total CCSD energy:           -100.270758352038030


 --------------------------------
 Spin Component Scaled (SCS) CCSD
 --------------------------------
 Same spin contribution:                 -0.054588908776649
 Same spin scaling factor:                1.130000000000000
 Opposite spin contribution:             -0.181700606923977
 Opposite spin scaling fact.:             1.270000000000000
 SCS-CCSD correlation energy:            -0.292445237711065
 Total SCS-CCSD energy:                -100.326914074048460

 routine      calls  cpu(0)   cpu-min  cpu-ave  cpu-max   i/o 
 aoccsd          1     0.00     0.00     0.00     0.00    0.00
 iterdrv         1     0.04     0.04     0.04     0.04    0.00
 pampt          11     0.04     0.04     0.04     0.04    0.00
 t2pm           11     0.03     0.03     0.03     0.03    0.00
 sxy            11     0.03     0.03     0.04     0.05    0.00
 ints         6080     0.05     0.04     0.05     0.05    0.00
 f_write        64     0.00     0.00     0.00     0.00    0.00
 t2eri         352     0.10     0.09     0.10     0.10    0.00
 idx2          352     0.04     0.03     0.04     0.04    0.00
 idx34          11     0.00     0.00     0.00     0.00    0.00
 ht2pm          11     0.03     0.03     0.03     0.03    0.00
 itm            11     0.11     0.11     0.11     0.11    0.00
 pdiis          11     0.00     0.00     0.00     0.00    0.00
 r_read        320     0.01     0.01     0.01     0.01    0.00
 Total                 0.49     0.49     0.49     0.49    0.00
 Line search: 
     step= 1.00 grad=-8.9D-07 hess= 6.9D-07 energy=   -100.270758 mode=downhill
 new step= 0.64                   predicted energy=   -100.270758
  no constraints, skipping    0.0000000000000000     
  no constraints, skipping    0.0000000000000000     
  no constraints, skipping    0.0000000000000000     

          --------
          Step   1
          --------
                         NWChem Numerical Gradients Module
                         ---------------------------------


 No. of totally-symmetric internal modes =   1

                                 NWChem SCF Module
                                 -----------------


                                 CCSD/daug-cc-pVDZ



  ao basis        = "ao basis"
  functions       =    48
  atoms           =     2
  closed shells   =     5
  open shells     =     0
  charge          =   0.00
  wavefunction    = RHF 
  input vectors   = ./molecule.movecs
  output vectors  = ./molecule.movecs
  use symmetry    = T
  symmetry adapt  = T


 Forming initial guess at       3.0s


 Starting SCF solution at       3.0s



       Final RHF  results 
       ------------------ 

         Total SCF energy =   -100.034453457394
      One-electron energy =   -150.450001955177
      Two-electron energy =     45.241312455163
 Nuclear repulsion energy =      5.174236042620

        Time for solution =      0.1s




                   Four-Index Transformation
                   -------------------------
          Number of basis functions:             48
          Number of shells:                      19
          Number of occupied orbitals:            5
          Number of occ. correlated orbitals:     5
          Block length:                          16
          Superscript MO index range:      1 -    5
          Subscript MO index range:        1 -   48
          MO coefficients read from:  ./molecule.movecs        
          Number of operator matrices in core:   30
          Half-transformed integrals produced

     Pass:    1     Index range:    1  -    5     Time:      0.03


 ****************************************************************************
              the segmented parallel ccsd program:    6 nodes
 ****************************************************************************




 level of theory    ccsd
 number of core         0
 number of occupied     5
 number of virtual     43
 number of deleted      0
 total functions       48
 number of shells      19
 basis label          566



   ***** ccsd parameters *****
   iprt   =     0
   convi  =  0.100E-05
   maxit  =    20
   mxvec  =     5
 memory             52424228
  Using  1 OpenMP thread(s) in CCSD
  Recompile w/ USE_OPENMP=1 to use threads in CCSD
  Restarting from old vector in ./molecule.t2


-------------------------------------------------------------------------
 iter     correlation     delta       rms       T2     Non-T2      Main
             energy      energy      error      ampl     ampl      Block
                                                time     time      time
-------------------------------------------------------------------------
   1     -0.2382455970 -2.382D-01  9.881D-02     0.10     0.00     0.08
   2     -0.2348449848  3.401D-03  3.972D-02     0.03     0.00     0.01
   3     -0.2363519124 -1.507D-03  9.001D-03     0.03     0.00     0.01
   4     -0.2362354216  1.165D-04  3.809D-03     0.03     0.00     0.01
   5     -0.2363000818 -6.466D-05  2.140D-04     0.03     0.00     0.02
   6     -0.2363036499 -3.568D-06  4.228D-04     0.03     0.00     0.02
   7     -0.2363055444 -1.894D-06  2.514D-05     0.04     0.00     0.02
   8     -0.2363050574  4.870D-07  2.177D-05     0.03     0.00     0.01
   9     -0.2363050041  5.332D-08  4.881D-06     0.03     0.00     0.02
  10     -0.2363050309 -2.678D-08  1.090D-06     0.03     0.00     0.01
  11     -0.2363050181  1.286D-08  7.115D-07     0.03     0.00     0.02
                  *************converged*************
-------------------------------------------------------------------------

 -----------
 CCSD Energy
 -----------
 Reference energy:            -100.034453457393866
 CCSD corr. energy:             -0.236305018055839
 Total CCSD energy:           -100.270758475449711


 --------------------------------
 Spin Component Scaled (SCS) CCSD
 --------------------------------
 Same spin contribution:                 -0.054590462677612
 Same spin scaling factor:                1.130000000000000
 Opposite spin contribution:             -0.181714555378227
 Opposite spin scaling fact.:             1.270000000000000
 SCS-CCSD correlation energy:            -0.292464708156050
 Total SCS-CCSD energy:                -100.326918165549912

 routine      calls  cpu(0)   cpu-min  cpu-ave  cpu-max   i/o 
 aoccsd          1     0.01     0.01     0.01     0.01    0.00
 iterdrv         1     0.04     0.04     0.04     0.04    0.00
 pampt          11     0.03     0.03     0.03     0.04    0.00
 t2pm           11     0.03     0.03     0.03     0.03    0.00
 sxy            11     0.02     0.02     0.05     0.06    0.00
 ints         6080     0.07     0.04     0.05     0.07    0.00
 f_write        64     0.00     0.00     0.00     0.00    0.00
 t2eri         352     0.10     0.09     0.09     0.10    0.00
 idx2          352     0.04     0.03     0.03     0.04    0.00
 idx34          11     0.00     0.00     0.00     0.00    0.00
 ht2pm          11     0.03     0.03     0.03     0.03    0.00
 itm            11     0.10     0.10     0.10     0.10    0.00
 pdiis          11     0.00     0.00     0.00     0.00    0.00
 r_read        320     0.01     0.01     0.01     0.01    0.00
 Total                 0.47     0.47     0.47     0.47    0.00
 Reference energy        -100.27075848

 Finite difference step  1.00000D-02
 Use five point formula F

                                 NWChem SCF Module
                                 -----------------


                                 CCSD/daug-cc-pVDZ



  ao basis        = "ao basis"
  functions       =    48
  atoms           =     2
  closed shells   =     5
  open shells     =     0
  charge          =   0.00
  wavefunction    = RHF 
  input vectors   = ./molecule.movecs
  output vectors  = ./molecule.movecs
  use symmetry    = T
  symmetry adapt  = T


 Forming initial guess at       3.7s


 Starting SCF solution at       3.7s



       Final RHF  results 
       ------------------ 

         Total SCF energy =   -100.034016103156
      One-electron energy =   -150.379657132964
      Two-electron energy =     45.213134969066
 Nuclear repulsion energy =      5.132506060742

        Time for solution =      0.1s




                   Four-Index Transformation
                   -------------------------
          Number of basis functions:             48
          Number of shells:                      19
          Number of occupied orbitals:            5
          Number of occ. correlated orbitals:     5
          Block length:                          16
          Superscript MO index range:      1 -    5
          Subscript MO index range:        1 -   48
          MO coefficients read from:  ./molecule.movecs        
          Number of operator matrices in core:   30
          Half-transformed integrals produced

     Pass:    1     Index range:    1  -    5     Time:      0.04


 ****************************************************************************
              the segmented parallel ccsd program:    6 nodes
 ****************************************************************************




 level of theory    ccsd
 number of core         0
 number of occupied     5
 number of virtual     43
 number of deleted      0
 total functions       48
 number of shells      19
 basis label          566



   ***** ccsd parameters *****
   iprt   =     0
   convi  =  0.100E-05
   maxit  =    20
   mxvec  =     5
 memory             52424228
  Using  1 OpenMP thread(s) in CCSD
  Recompile w/ USE_OPENMP=1 to use threads in CCSD
  Restarting from old vector in ./molecule.t2


-------------------------------------------------------------------------
 iter     correlation     delta       rms       T2     Non-T2      Main
             energy      energy      error      ampl     ampl      Block
                                                time     time      time
-------------------------------------------------------------------------
   1     -0.2401756884 -2.402D-01  1.250D-01     0.08     0.00     0.07
   2     -0.2336367714  6.539D-03  2.397D-02     0.03     0.00     0.01
   3     -0.2363730198 -2.736D-03  7.453D-03     0.04     0.00     0.02
   4     -0.2364619230 -8.890D-05  3.427D-03     0.03     0.00     0.02
   5     -0.2366444636 -1.825D-04  8.455D-04     0.03     0.00     0.01
   6     -0.2366839307 -3.947D-05  3.820D-04     0.03     0.00     0.02
   7     -0.2366854839 -1.553D-06  1.806D-04     0.03     0.00     0.01
   8     -0.2366835586  1.925D-06  1.795D-04     0.03     0.00     0.01
   9     -0.2366822006  1.358D-06  4.229D-05     0.03     0.00     0.01
  10     -0.2366820041  1.966D-07  1.965D-05     0.03     0.00     0.01
  11     -0.2366819793  2.478D-08  2.785D-06     0.03     0.00     0.01
  12     -0.2366820138 -3.455D-08  9.068D-07     0.03     0.00     0.01
                  *************converged*************
-------------------------------------------------------------------------

 -----------
 CCSD Energy
 -----------
 Reference energy:            -100.034016103155537
 CCSD corr. energy:             -0.236682013834425
 Total CCSD energy:           -100.270698116989962


 --------------------------------
 Spin Component Scaled (SCS) CCSD
 --------------------------------
 Same spin contribution:                 -0.054628050919076
 Same spin scaling factor:                1.130000000000000
 Opposite spin contribution:             -0.182053962915349
 Opposite spin scaling fact.:             1.270000000000000
 SCS-CCSD correlation energy:            -0.292938230441049
 Total SCS-CCSD energy:                -100.326954333596589

 routine      calls  cpu(0)   cpu-min  cpu-ave  cpu-max   i/o 
 aoccsd          1     0.01     0.01     0.01     0.01    0.00
 iterdrv         1     0.04     0.04     0.04     0.05    0.00
 pampt          12     0.04     0.04     0.04     0.04    0.00
 t2pm           12     0.03     0.03     0.03     0.03    0.00
 sxy            12     0.04     0.02     0.04     0.06    0.00
 ints         6080     0.04     0.03     0.04     0.05    0.00
 f_write        64     0.00     0.00     0.00     0.00    0.00
 t2eri         384     0.10     0.09     0.10     0.11    0.00
 idx2          384     0.04     0.03     0.04     0.04    0.00
 idx34          12     0.00     0.00     0.00     0.00    0.00
 ht2pm          12     0.03     0.03     0.03     0.03    0.00
 itm            12     0.10     0.10     0.10     0.10    0.00
 pdiis          12     0.00     0.00     0.00     0.00    0.00
 r_read        352     0.01     0.01     0.01     0.01    0.00
 Total                 0.49     0.49     0.49     0.49    0.00
 step     1 energy        -100.27069812
                                 NWChem SCF Module
                                 -----------------


                                 CCSD/daug-cc-pVDZ



  ao basis        = "ao basis"
  functions       =    48
  atoms           =     2
  closed shells   =     5
  open shells     =     0
  charge          =   0.00
  wavefunction    = RHF 
  input vectors   = ./molecule.movecs
  output vectors  = ./molecule.movecs
  use symmetry    = T
  symmetry adapt  = T


 Forming initial guess at       4.4s


 Starting SCF solution at       4.4s



       Final RHF  results 
       ------------------ 

         Total SCF energy =   -100.034766672025
      One-electron energy =   -150.521332627008
      Two-electron energy =     45.269915794565
 Nuclear repulsion energy =      5.216650160418

        Time for solution =      0.1s




                   Four-Index Transformation
                   -------------------------
          Number of basis functions:             48
          Number of shells:                      19
          Number of occupied orbitals:            5
          Number of occ. correlated orbitals:     5
          Block length:                          16
          Superscript MO index range:      1 -    5
          Subscript MO index range:        1 -   48
          MO coefficients read from:  ./molecule.movecs        
          Number of operator matrices in core:   30
          Half-transformed integrals produced

     Pass:    1     Index range:    1  -    5     Time:      0.04


 ****************************************************************************
              the segmented parallel ccsd program:    6 nodes
 ****************************************************************************




 level of theory    ccsd
 number of core         0
 number of occupied     5
 number of virtual     43
 number of deleted      0
 total functions       48
 number of shells      19
 basis label          566



   ***** ccsd parameters *****
   iprt   =     0
   convi  =  0.100E-05
   maxit  =    20
   mxvec  =     5
 memory             52424228
  Using  1 OpenMP thread(s) in CCSD
  Recompile w/ USE_OPENMP=1 to use threads in CCSD
  Restarting from old vector in ./molecule.t2


-------------------------------------------------------------------------
 iter     correlation     delta       rms       T2     Non-T2      Main
             energy      energy      error      ampl     ampl      Block
                                                time     time      time
-------------------------------------------------------------------------
   1     -0.2378102335 -2.378D-01  1.112D-01     0.09     0.00     0.07
   2     -0.2347316084  3.079D-03  5.001D-02     0.03     0.00     0.02
   3     -0.2360206206 -1.289D-03  3.065D-03     0.04     0.00     0.02
   4     -0.2358863495  1.343D-04  1.308D-03     0.04     0.00     0.02
   5     -0.2359212685 -3.492D-05  4.126D-04     0.04     0.00     0.02
   6     -0.2359277907 -6.522D-06  1.765D-04     0.04     0.00     0.01
   7     -0.2359281998 -4.091D-07  7.785D-05     0.03     0.00     0.02
   8     -0.2359284618 -2.620D-07  7.563D-06     0.03     0.00     0.01
   9     -0.2359284917 -2.994D-08  1.439D-05     0.04     0.00     0.02
  10     -0.2359284659  2.586D-08  1.622D-06     0.03     0.00     0.02
  11     -0.2359285054 -3.954D-08  3.222D-07     0.03     0.00     0.02
                  *************converged*************
-------------------------------------------------------------------------

 -----------
 CCSD Energy
 -----------
 Reference energy:            -100.034766672025228
 CCSD corr. energy:             -0.235928505432092
 Total CCSD energy:           -100.270695177457327


 --------------------------------
 Spin Component Scaled (SCS) CCSD
 --------------------------------
 Same spin contribution:                 -0.054552172606731
 Same spin scaling factor:                1.130000000000000
 Opposite spin contribution:             -0.181376332825361
 Opposite spin scaling fact.:             1.270000000000000
 SCS-CCSD correlation energy:            -0.291991897733815
 Total SCS-CCSD energy:                -100.326758569759036

 routine      calls  cpu(0)   cpu-min  cpu-ave  cpu-max   i/o 
 aoccsd          1     0.00     0.00     0.00     0.00    0.00
 iterdrv         1     0.04     0.04     0.04     0.04    0.00
 pampt          11     0.04     0.04     0.04     0.04    0.00
 t2pm           11     0.03     0.03     0.03     0.03    0.00
 sxy            11     0.02     0.02     0.04     0.05    0.00
 ints         6080     0.06     0.04     0.05     0.06    0.00
 f_write        64     0.00     0.00     0.00     0.00    0.00
 t2eri         352     0.10     0.09     0.09     0.10    0.00
 idx2          352     0.04     0.03     0.03     0.04    0.00
 idx34          11     0.00     0.00     0.00     0.00    0.00
 ht2pm          11     0.04     0.04     0.04     0.04    0.00
 itm            11     0.11     0.11     0.11     0.11    0.00
 pdiis          11     0.00     0.00     0.00     0.00    0.00
 r_read        320     0.01     0.01     0.01     0.01    0.00
 Total                 0.49     0.49     0.49     0.49    0.00
 step    -1 energy        -100.27069518
            gradient        -0.000147


                         CCSD ENERGY GRADIENTS

    atom               coordinates                        gradient
                 x          y          z           x          y          z
   1 F       0.000000   0.000000  -0.173519    0.000000   0.000000   0.000104
   2 H       0.000000   0.000000   1.565869    0.000000   0.000000  -0.000104


  no constraints, skipping    0.0000000000000000     

  Step       Energy      Delta E   Gmax     Grms     Xrms     Xmax   Walltime
  ---- ---------------- -------- -------- -------- -------- -------- --------
@    1    -100.27075848 -3.2D-07  0.00010  0.00010  0.00030  0.00053      5.1
                                     ok       ok       ok       ok  


      ----------------------
      Optimization converged
      ----------------------


  Step       Energy      Delta E   Gmax     Grms     Xrms     Xmax   Walltime
  ---- ---------------- -------- -------- -------- -------- -------- --------
@    1    -100.27075848 -3.2D-07  0.00010  0.00010  0.00030  0.00053      5.1
                                     ok       ok       ok       ok  



                         Geometry "geometry" -> "geometry"
                         ---------------------------------

 Output coordinates in angstroms (scale by  1.889725989 to convert to a.u.)

  No.       Tag          Charge          X              Y              Z
 ---- ---------------- ---------- -------------- -------------- --------------
    1 F                    9.0000     0.00000000     0.00000000    -0.09182207
    2 H                    1.0000     0.00000000     0.00000000     0.82862207

      Atomic Mass 
      ----------- 

      F                 18.998400
      H                  1.007825


 Effective nuclear repulsion energy (a.u.)       5.1742360426

            Nuclear Dipole moment (a.u.) 
            ----------------------------
        X                 Y               Z
 ---------------- ---------------- ----------------
     0.0000000000     0.0000000000     0.0042016973

      Symmetry information
      --------------------

 Group name             C2v       
 Group number             16
 Group order               4
 No. of unique centers     2

      Symmetry unique atoms

     1    2


                Final and change from initial internal coordinates
                --------------------------------------------------



                                Z-matrix (autoz)
                                -------- 

 Units are Angstrom for bonds and degrees for angles

      Type          Name      I     J     K     L     M      Value       Change
      ----------- --------  ----- ----- ----- ----- ----- ---------- ----------
    1 Stretch                  1     2                       0.92044   -0.00056



                                NWChem Input Module
                                -------------------




                   NWChem Nuclear Hessian and Frequency Analysis
                   ---------------------------------------------



                         NWChem Finite-difference Hessian
                         --------------------------------


                                 NWChem SCF Module
                                 -----------------


                                 CCSD/daug-cc-pVDZ



  ao basis        = "ao basis"
  functions       =    48
  atoms           =     2
  closed shells   =     5
  open shells     =     0
  charge          =   0.00
  wavefunction    = RHF 
  input vectors   = ./molecule.movecs
  output vectors  = ./molecule.movecs
  use symmetry    = T
  symmetry adapt  = T


 Forming initial guess at       5.1s


 Starting SCF solution at       5.1s



       Final RHF  results 
       ------------------ 

         Total SCF energy =   -100.034453457394
      One-electron energy =   -150.450001955177
      Two-electron energy =     45.241312455163
 Nuclear repulsion energy =      5.174236042620

        Time for solution =      0.0s




                   Four-Index Transformation
                   -------------------------
          Number of basis functions:             48
          Number of shells:                      19
          Number of occupied orbitals:            5
          Number of occ. correlated orbitals:     5
          Block length:                          16
          Superscript MO index range:      1 -    5
          Subscript MO index range:        1 -   48
          MO coefficients read from:  ./molecule.movecs        
          Number of operator matrices in core:   30
          Half-transformed integrals produced

     Pass:    1     Index range:    1  -    5     Time:      0.04


 ****************************************************************************
              the segmented parallel ccsd program:    6 nodes
 ****************************************************************************




 level of theory    ccsd
 number of core         0
 number of occupied     5
 number of virtual     43
 number of deleted      0
 total functions       48
 number of shells      19
 basis label          566



   ***** ccsd parameters *****
   iprt   =     0
   convi  =  0.100E-05
   maxit  =    20
   mxvec  =     5
 memory             52424428
  Using  1 OpenMP thread(s) in CCSD
  Recompile w/ USE_OPENMP=1 to use threads in CCSD
  Restarting from old vector in ./molecule.t2


-------------------------------------------------------------------------
 iter     correlation     delta       rms       T2     Non-T2      Main
             energy      energy      error      ampl     ampl      Block
                                                time     time      time
-------------------------------------------------------------------------
   1     -0.2377556152 -2.378D-01  1.021D-01     0.08     0.00     0.07
   2     -0.2352785771  2.477D-03  2.066D-02     0.04     0.00     0.02
   3     -0.2363192376 -1.041D-03  5.193D-03     0.04     0.00     0.02
   4     -0.2362654801  5.376D-05  1.420D-03     0.03     0.00     0.02
   5     -0.2362937176 -2.824D-05  4.659D-04     0.03     0.00     0.01
   6     -0.2363035060 -9.788D-06  1.723D-04     0.03     0.00     0.02
   7     -0.2363048404 -1.334D-06  6.445D-05     0.03     0.00     0.02
   8     -0.2363050343 -1.939D-07  5.909D-06     0.03     0.00     0.02
   9     -0.2363050480 -1.364D-08  7.734D-06     0.04     0.00     0.02
  10     -0.2363050029  4.508D-08  1.183D-06     0.03     0.00     0.01
  11     -0.2363050242 -2.130D-08  5.944D-07     0.04     0.00     0.02
                  *************converged*************
-------------------------------------------------------------------------

 -----------
 CCSD Energy
 -----------
 Reference energy:            -100.034453457393866
 CCSD corr. energy:             -0.236305024193192
 Total CCSD energy:           -100.270758481587052


 --------------------------------
 Spin Component Scaled (SCS) CCSD
 --------------------------------
 Same spin contribution:                 -0.054590466177800
 Same spin scaling factor:                1.130000000000000
 Opposite spin contribution:             -0.181714558015392
 Opposite spin scaling fact.:             1.270000000000000
 SCS-CCSD correlation energy:            -0.292464715460462
 Total SCS-CCSD energy:                -100.326918172854334

 routine      calls  cpu(0)   cpu-min  cpu-ave  cpu-max   i/o 
 aoccsd          1     0.01     0.01     0.01     0.01    0.00
 iterdrv         1     0.04     0.04     0.04     0.04    0.00
 pampt          11     0.04     0.04     0.04     0.04    0.00
 t2pm           11     0.03     0.03     0.03     0.03    0.00
 sxy            11     0.03     0.02     0.04     0.06    0.00
 ints         6080     0.05     0.04     0.05     0.05    0.00
 f_write        64     0.00     0.00     0.00     0.00    0.00
 t2eri         352     0.09     0.08     0.09     0.10    0.00
 idx2          352     0.03     0.03     0.03     0.04    0.00
 idx34          11     0.00     0.00     0.00     0.00    0.00
 ht2pm          11     0.03     0.03     0.03     0.03    0.00
 itm            11     0.10     0.10     0.10     0.10    0.00
 pdiis          11     0.00     0.00     0.00     0.00    0.00
 r_read        320     0.01     0.01     0.01     0.01    0.00
 Total                 0.48     0.48     0.48     0.48    0.00
  
 initial hessian

 zero matrix

  
                         NWChem Numerical Gradients Module
                         ---------------------------------


 No. of totally-symmetric internal modes =   3

                                 NWChem SCF Module
                                 -----------------


                                 CCSD/daug-cc-pVDZ



  ao basis        = "ao basis"
  functions       =    48
  atoms           =     2
  closed shells   =     5
  open shells     =     0
  charge          =   0.00
  wavefunction    = RHF 
  input vectors   = ./molecule.movecs
  output vectors  = ./molecule.movecs
  use symmetry    = F
  symmetry adapt  = F


 Forming initial guess at       5.7s


 Starting SCF solution at       5.7s



       Final RHF  results 
       ------------------ 

         Total SCF energy =   -100.034453449754
      One-electron energy =   -150.450000676781
      Two-electron energy =     45.241312039520
 Nuclear repulsion energy =      5.174235187507

        Time for solution =      0.1s




                   Four-Index Transformation
                   -------------------------
          Number of basis functions:             48
          Number of shells:                      19
          Number of occupied orbitals:            5
          Number of occ. correlated orbitals:     5
          Block length:                          16
          Superscript MO index range:      1 -    5
          Subscript MO index range:        1 -   48
          MO coefficients read from:  ./molecule.movecs        
          Number of operator matrices in core:   30
          Half-transformed integrals produced

     Pass:    1     Index range:    1  -    5     Time:      0.04


 ****************************************************************************
              the segmented parallel ccsd program:    6 nodes
 ****************************************************************************




 level of theory    ccsd
 number of core         0
 number of occupied     5
 number of virtual     43
 number of deleted      0
 total functions       48
 number of shells      19
 basis label          566



   ***** ccsd parameters *****
   iprt   =     0
   convi  =  0.100E-05
   maxit  =    20
   mxvec  =     5
 memory             52424180
  Using  1 OpenMP thread(s) in CCSD
  Recompile w/ USE_OPENMP=1 to use threads in CCSD
  Restarting from old vector in ./molecule.t2


-------------------------------------------------------------------------
 iter     correlation     delta       rms       T2     Non-T2      Main
             energy      energy      error      ampl     ampl      Block
                                                time     time      time
-------------------------------------------------------------------------
   1     -0.2404968202 -2.405D-01  8.182D-02     0.10     0.00     0.08
   2     -0.2339252154  6.572D-03  6.183D-02     0.03     0.00     0.02
   3     -0.2363044578 -2.379D-03  1.204D-02     0.04     0.00     0.02
   4     -0.2361312810  1.732D-04  6.030D-03     0.03     0.00     0.02
   5     -0.2362808278 -1.495D-04  1.276D-03     0.03     0.00     0.02
   6     -0.2363041255 -2.330D-05  8.472D-04     0.04     0.00     0.02
   7     -0.2363057415 -1.616D-06  1.024D-04     0.03     0.00     0.01
   8     -0.2363051725  5.690D-07  2.260D-05     0.03     0.00     0.01
   9     -0.2363050737  9.885D-08  6.696D-06     0.03     0.00     0.02
  10     -0.2363050536  2.010D-08  7.253D-07     0.04     0.00     0.02
                  *************converged*************
-------------------------------------------------------------------------

 -----------
 CCSD Energy
 -----------
 Reference energy:            -100.034453449754309
 CCSD corr. energy:             -0.236305053578340
 Total CCSD energy:           -100.270758503332644


 --------------------------------
 Spin Component Scaled (SCS) CCSD
 --------------------------------
 Same spin contribution:                 -0.054590450839069
 Same spin scaling factor:                1.130000000000000
 Opposite spin contribution:             -0.181714602739271
 Opposite spin scaling fact.:             1.270000000000000
 SCS-CCSD correlation energy:            -0.292464754927022
 Total SCS-CCSD energy:                -100.326918204681334

 routine      calls  cpu(0)   cpu-min  cpu-ave  cpu-max   i/o 
 aoccsd          1     0.00     0.00     0.00     0.00    0.00
 iterdrv         1     0.04     0.04     0.04     0.04    0.00
 pampt          10     0.04     0.04     0.04     0.04    0.00
 t2pm           10     0.03     0.03     0.03     0.03    0.00
 sxy            10     0.02     0.02     0.05     0.06    0.00
 ints         6080     0.07     0.04     0.05     0.07    0.00
 f_write        64     0.00     0.00     0.00     0.00    0.00
 t2eri         320     0.09     0.08     0.09     0.09    0.00
 idx2          320     0.03     0.03     0.03     0.04    0.00
 idx34          10     0.00     0.00     0.00     0.00    0.00
 ht2pm          10     0.03     0.03     0.03     0.03    0.00
 itm            10     0.09     0.09     0.09     0.09    0.00
 pdiis          10     0.00     0.00     0.00     0.00    0.00
 r_read        288     0.01     0.01     0.01     0.01    0.00
 Total                 0.46     0.46     0.46     0.46    0.00
 Reference energy        -100.27075850

 Finite difference step  1.00000D-02
 Use five point formula F

                                 NWChem SCF Module
                                 -----------------


                                 CCSD/daug-cc-pVDZ



  ao basis        = "ao basis"
  functions       =    48
  atoms           =     2
  closed shells   =     5
  open shells     =     0
  charge          =   0.00
  wavefunction    = RHF 
  input vectors   = ./molecule.movecs
  output vectors  = ./molecule.movecs
  use symmetry    = F
  symmetry adapt  = F


 Forming initial guess at       6.4s


 Starting SCF solution at       6.4s



       Final RHF  results 
       ------------------ 

         Total SCF energy =   -100.034156635920
      One-electron energy =   -150.400158260006
      Two-electron energy =     45.221343842078
 Nuclear repulsion energy =      5.144657782008

        Time for solution =      0.1s




                   Four-Index Transformation
                   -------------------------
          Number of basis functions:             48
          Number of shells:                      19
          Number of occupied orbitals:            5
          Number of occ. correlated orbitals:     5
          Block length:                          16
          Superscript MO index range:      1 -    5
          Subscript MO index range:        1 -   48
          MO coefficients read from:  ./molecule.movecs        
          Number of operator matrices in core:   30
          Half-transformed integrals produced

     Pass:    1     Index range:    1  -    5     Time:      0.04


 ****************************************************************************
              the segmented parallel ccsd program:    6 nodes
 ****************************************************************************




 level of theory    ccsd
 number of core         0
 number of occupied     5
 number of virtual     43
 number of deleted      0
 total functions       48
 number of shells      19
 basis label          566



   ***** ccsd parameters *****
   iprt   =     0
   convi  =  0.100E-05
   maxit  =    20
   mxvec  =     5
 memory             52424180
  Using  1 OpenMP thread(s) in CCSD
  Recompile w/ USE_OPENMP=1 to use threads in CCSD
  Restarting from old vector in ./molecule.t2


-------------------------------------------------------------------------
 iter     correlation     delta       rms       T2     Non-T2      Main
             energy      energy      error      ampl     ampl      Block
                                                time     time      time
-------------------------------------------------------------------------
   1     -0.2366698458 -2.367D-01  1.031D-01     0.09     0.00     0.07
   2     -0.2341353876  2.534D-03  4.156D-02     0.04     0.00     0.02
   3     -0.2360649958 -1.930D-03  1.199D-02     0.03     0.00     0.01
   4     -0.2363685083 -3.035D-04  4.721D-03     0.04     0.00     0.02
   5     -0.2365470371 -1.785D-04  6.305D-04     0.04     0.00     0.02
   6     -0.2365748914 -2.785D-05  2.591D-04     0.03     0.00     0.01
   7     -0.2365742150  6.763D-07  1.307D-04     0.03     0.00     0.02
   8     -0.2365727535  1.462D-06  1.823D-04     0.03     0.00     0.02
   9     -0.2365718642  8.892D-07  2.401D-05     0.04     0.00     0.02
  10     -0.2365715267  3.376D-07  1.686D-05     0.04     0.00     0.02
  11     -0.2365715471 -2.041D-08  2.843D-06     0.04     0.00     0.02
  12     -0.2365715473 -1.804D-10  9.091D-07     0.03     0.00     0.02
                  *************converged*************
-------------------------------------------------------------------------

 -----------
 CCSD Energy
 -----------
 Reference energy:            -100.034156635920141
 CCSD corr. energy:             -0.236571547273548
 Total CCSD energy:           -100.270728183193683


 --------------------------------
 Spin Component Scaled (SCS) CCSD
 --------------------------------
 Same spin contribution:                 -0.054617122066522
 Same spin scaling factor:                1.130000000000000
 Opposite spin contribution:             -0.181954425207026
 Opposite spin scaling fact.:             1.270000000000000
 SCS-CCSD correlation energy:            -0.292799467948093
 Total SCS-CCSD energy:                -100.326956103868241

 routine      calls  cpu(0)   cpu-min  cpu-ave  cpu-max   i/o 
 aoccsd          1     0.01     0.01     0.01     0.01    0.00
 iterdrv         1     0.04     0.04     0.04     0.04    0.00
 pampt          12     0.04     0.04     0.04     0.04    0.00
 t2pm           12     0.03     0.03     0.03     0.03    0.00
 sxy            12     0.03     0.03     0.05     0.06    0.00
 ints         6080     0.06     0.04     0.05     0.06    0.00
 f_write        64     0.00     0.00     0.00     0.00    0.00
 t2eri         384     0.11     0.10     0.10     0.11    0.00
 idx2          384     0.04     0.03     0.04     0.04    0.00
 idx34          12     0.00     0.00     0.00     0.00    0.00
 ht2pm          12     0.04     0.04     0.04     0.04    0.00
 itm            12     0.11     0.11     0.11     0.11    0.00
 pdiis          12     0.00     0.00     0.00     0.00    0.00
 r_read        352     0.01     0.01     0.01     0.01    0.00
 Total                 0.52     0.52     0.52     0.52    0.00
 step     1 energy        -100.27072818
                                 NWChem SCF Module
                                 -----------------


                                 CCSD/daug-cc-pVDZ



  ao basis        = "ao basis"
  functions       =    48
  atoms           =     2
  closed shells   =     5
  open shells     =     0
  charge          =   0.00
  wavefunction    = RHF 
  input vectors   = ./molecule.movecs
  output vectors  = ./molecule.movecs
  use symmetry    = F
  symmetry adapt  = F


 Forming initial guess at       7.1s


 Starting SCF solution at       7.1s



       Final RHF  results 
       ------------------ 

         Total SCF energy =   -100.034688201047
      One-electron energy =   -150.500335770163
      Two-electron energy =     45.261492919796
 Nuclear repulsion energy =      5.204154649320

        Time for solution =      0.1s




                   Four-Index Transformation
                   -------------------------
          Number of basis functions:             48
          Number of shells:                      19
          Number of occupied orbitals:            5
          Number of occ. correlated orbitals:     5
          Block length:                          16
          Superscript MO index range:      1 -    5
          Subscript MO index range:        1 -   48
          MO coefficients read from:  ./molecule.movecs        
          Number of operator matrices in core:   30
          Half-transformed integrals produced

     Pass:    1     Index range:    1  -    5     Time:      0.04


 ****************************************************************************
              the segmented parallel ccsd program:    6 nodes
 ****************************************************************************




 level of theory    ccsd
 number of core         0
 number of occupied     5
 number of virtual     43
 number of deleted      0
 total functions       48
 number of shells      19
 basis label          566



   ***** ccsd parameters *****
   iprt   =     0
   convi  =  0.100E-05
   maxit  =    20
   mxvec  =     5
 memory             52424180
  Using  1 OpenMP thread(s) in CCSD
  Recompile w/ USE_OPENMP=1 to use threads in CCSD
  Restarting from old vector in ./molecule.t2


-------------------------------------------------------------------------
 iter     correlation     delta       rms       T2     Non-T2      Main
             energy      energy      error      ampl     ampl      Block
                                                time     time      time
-------------------------------------------------------------------------
   1     -0.2358034761 -2.358D-01  7.045D-02     0.09     0.00     0.07
   2     -0.2353164800  4.870D-04  2.211D-02     0.04     0.00     0.01
   3     -0.2359525098 -6.360D-04  6.478D-03     0.04     0.00     0.02
   4     -0.2359930078 -4.050D-05  3.214D-03     0.04     0.00     0.02
   5     -0.2360276055 -3.460D-05  6.688D-04     0.04     0.00     0.02
   6     -0.2360377908 -1.019D-05  1.740D-04     0.03     0.00     0.01
   7     -0.2360383482 -5.574D-07  9.049D-06     0.04     0.00     0.02
   8     -0.2360386379 -2.897D-07  3.435D-05     0.04     0.00     0.02
   9     -0.2360387232 -8.529D-08  4.849D-06     0.03     0.00     0.02
  10     -0.2360387115  1.173D-08  2.454D-06     0.04     0.00     0.02
  11     -0.2360387318 -2.037D-08  4.598D-07     0.04     0.00     0.02
                  *************converged*************
-------------------------------------------------------------------------

 -----------
 CCSD Energy
 -----------
 Reference energy:            -100.034688201046663
 CCSD corr. energy:             -0.236038731827021
 Total CCSD energy:           -100.270726932873686


 --------------------------------
 Spin Component Scaled (SCS) CCSD
 --------------------------------
 Same spin contribution:                 -0.054563460245977
 Same spin scaling factor:                1.130000000000000
 Opposite spin contribution:             -0.181475271581045
 Opposite spin scaling fact.:             1.270000000000000
 SCS-CCSD correlation energy:            -0.292130304985880
 Total SCS-CCSD energy:                -100.326818506032538

 routine      calls  cpu(0)   cpu-min  cpu-ave  cpu-max   i/o 
 aoccsd          1     0.01     0.01     0.01     0.01    0.00
 iterdrv         1     0.05     0.04     0.05     0.05    0.00
 pampt          11     0.04     0.04     0.04     0.04    0.00
 t2pm           11     0.03     0.03     0.03     0.03    0.00
 sxy            11     0.03     0.02     0.04     0.05    0.00
 ints         6080     0.05     0.03     0.05     0.06    0.00
 f_write        64     0.00     0.00     0.00     0.00    0.00
 t2eri         352     0.10     0.09     0.10     0.10    0.00
 idx2          352     0.03     0.03     0.04     0.04    0.00
 idx34          11     0.00     0.00     0.00     0.00    0.00
 ht2pm          11     0.04     0.04     0.04     0.04    0.00
 itm            11     0.11     0.11     0.11     0.11    0.00
 pdiis          11     0.00     0.00     0.00     0.00    0.00
 r_read        320     0.01     0.01     0.01     0.01    0.00
 Total                 0.50     0.50     0.50     0.50    0.00
 step    -1 energy        -100.27072693
            gradient        -0.000063
                                 NWChem SCF Module
                                 -----------------


                                 CCSD/daug-cc-pVDZ



  ao basis        = "ao basis"
  functions       =    48
  atoms           =     2
  closed shells   =     5
  open shells     =     0
  charge          =   0.00
  wavefunction    = RHF 
  input vectors   = ./molecule.movecs
  output vectors  = ./molecule.movecs
  use symmetry    = F
  symmetry adapt  = F


 Forming initial guess at       7.8s


 Starting SCF solution at       7.8s



       Final RHF  results 
       ------------------ 

         Total SCF energy =   -100.034452531145
      One-electron energy =   -150.449827826937
      Two-electron energy =     45.241242718786
 Nuclear repulsion energy =      5.174132577006

        Time for solution =      0.1s




                   Four-Index Transformation
                   -------------------------
          Number of basis functions:             48
          Number of shells:                      19
          Number of occupied orbitals:            5
          Number of occ. correlated orbitals:     5
          Block length:                          16
          Superscript MO index range:      1 -    5
          Subscript MO index range:        1 -   48
          MO coefficients read from:  ./molecule.movecs        
          Number of operator matrices in core:   30
          Half-transformed integrals produced

     Pass:    1     Index range:    1  -    5     Time:      0.04


 ****************************************************************************
              the segmented parallel ccsd program:    6 nodes
 ****************************************************************************




 level of theory    ccsd
 number of core         0
 number of occupied     5
 number of virtual     43
 number of deleted      0
 total functions       48
 number of shells      19
 basis label          566



   ***** ccsd parameters *****
   iprt   =     0
   convi  =  0.100E-05
   maxit  =    20
   mxvec  =     5
 memory             52424180
  Using  1 OpenMP thread(s) in CCSD
  Recompile w/ USE_OPENMP=1 to use threads in CCSD
  Restarting from old vector in ./molecule.t2


-------------------------------------------------------------------------
 iter     correlation     delta       rms       T2     Non-T2      Main
             energy      energy      error      ampl     ampl      Block
                                                time     time      time
-------------------------------------------------------------------------
   1     -0.2352652552 -2.353D-01  6.704D-02     0.09     0.00     0.08
   2     -0.2356520486 -3.868D-04  1.867D-02     0.03     0.00     0.02
   3     -0.2362672286 -6.152D-04  4.760D-03     0.03     0.00     0.01
   4     -0.2362636209  3.608D-06  3.584D-03     0.04     0.00     0.01
   5     -0.2362940801 -3.046D-05  8.769D-04     0.03     0.00     0.02
   6     -0.2363055112 -1.143D-05  1.453D-04     0.04     0.00     0.01
   7     -0.2363051223  3.888D-07  4.780D-05     0.03     0.00     0.02
   8     -0.2363056815 -5.592D-07  1.772D-05     0.03     0.00     0.02
   9     -0.2363058983 -2.168D-07  4.367D-06     0.03     0.00     0.02
  10     -0.2363059299 -3.163D-08  2.259D-06     0.03     0.00     0.02
  11     -0.2363059507 -2.072D-08  3.156D-07     0.03     0.00     0.02
                  *************converged*************
-------------------------------------------------------------------------

 -----------
 CCSD Energy
 -----------
 Reference energy:            -100.034452531145050
 CCSD corr. energy:             -0.236305950665601
 Total CCSD energy:           -100.270758481810645


 --------------------------------
 Spin Component Scaled (SCS) CCSD
 --------------------------------
 Same spin contribution:                 -0.054590557144219
 Same spin scaling factor:                1.130000000000000
 Opposite spin contribution:             -0.181715393521382
 Opposite spin scaling fact.:             1.270000000000000
 SCS-CCSD correlation energy:            -0.292465879345122
 Total SCS-CCSD energy:                -100.326918410490165

 routine      calls  cpu(0)   cpu-min  cpu-ave  cpu-max   i/o 
 aoccsd          1     0.01     0.01     0.01     0.01    0.00
 iterdrv         1     0.04     0.04     0.04     0.04    0.00
 pampt          11     0.04     0.04     0.04     0.04    0.00
 t2pm           11     0.03     0.03     0.03     0.03    0.00
 sxy            11     0.02     0.02     0.04     0.06    0.00
 ints         6080     0.06     0.04     0.05     0.06    0.00
 f_write        64     0.00     0.00     0.00     0.00    0.00
 t2eri         352     0.10     0.09     0.09     0.10    0.00
 idx2          352     0.04     0.03     0.03     0.04    0.00
 idx34          11     0.00     0.00     0.00     0.00    0.00
 ht2pm          11     0.03     0.03     0.03     0.03    0.00
 itm            11     0.10     0.10     0.10     0.10    0.00
 pdiis          11     0.00     0.00     0.00     0.00    0.00
 r_read        320     0.01     0.01     0.01     0.01    0.00
 Total                 0.48     0.48     0.48     0.48    0.00
 step     2 energy        -100.27075848
                                 NWChem SCF Module
                                 -----------------


                                 CCSD/daug-cc-pVDZ



  ao basis        = "ao basis"
  functions       =    48
  atoms           =     2
  closed shells   =     5
  open shells     =     0
  charge          =   0.00
  wavefunction    = RHF 
  input vectors   = ./molecule.movecs
  output vectors  = ./molecule.movecs
  use symmetry    = F
  symmetry adapt  = F


 Forming initial guess at       8.5s


 Starting SCF solution at       8.5s



       Final RHF  results 
       ------------------ 

         Total SCF energy =   -100.034452837431
      One-electron energy =   -150.449885416838
      Two-electron energy =     45.241265799579
 Nuclear repulsion energy =      5.174166779828

        Time for solution =      0.1s




                   Four-Index Transformation
                   -------------------------
          Number of basis functions:             48
          Number of shells:                      19
          Number of occupied orbitals:            5
          Number of occ. correlated orbitals:     5
          Block length:                          16
          Superscript MO index range:      1 -    5
          Subscript MO index range:        1 -   48
          MO coefficients read from:  ./molecule.movecs        
          Number of operator matrices in core:   30
          Half-transformed integrals produced

     Pass:    1     Index range:    1  -    5     Time:      0.04


[...]
       ------------------ 

         Total SCF energy =   -100.034050960434
      One-electron energy =   -150.384599266189
      Two-electron energy =     45.215113617273
 Nuclear repulsion energy =      5.135434688482

        Time for solution =      0.1s




                   Four-Index Transformation
                   -------------------------
          Number of basis functions:             48
          Number of shells:                      19
          Number of occupied orbitals:            5
          Number of occ. correlated orbitals:     5
          Block length:                          16
          Superscript MO index range:      1 -    5
          Subscript MO index range:        1 -   48
          MO coefficients read from:  ./molecule.movecs        
          Number of operator matrices in core:   30
          Half-transformed integrals produced

     Pass:    1     Index range:    1  -    5     Time:      0.04


 ****************************************************************************
              the segmented parallel ccsd program:    6 nodes
 ****************************************************************************




 level of theory    ccsd
 number of core         0
 number of occupied     5
 number of virtual     43
 number of deleted      0
 total functions       48
 number of shells      19
 basis label          566



   ***** ccsd parameters *****
   iprt   =     0
   convi  =  0.100E-05
   maxit  =    20
   mxvec  =     5
 memory             52424180
  Using  1 OpenMP thread(s) in CCSD
  Recompile w/ USE_OPENMP=1 to use threads in CCSD
  Restarting from old vector in ./molecule.t2


-------------------------------------------------------------------------
 iter     correlation     delta       rms       T2     Non-T2      Main
             energy      energy      error      ampl     ampl      Block
                                                time     time      time
-------------------------------------------------------------------------
   1     -0.2389668442 -2.390D-01  1.261D-01     0.10     0.00     0.08
   2     -0.2335914036  5.375D-03  2.978D-02     0.04     0.00     0.02
   3     -0.2364376372 -2.846D-03  5.430D-03     0.04     0.00     0.02
   4     -0.2364474132 -9.776D-06  3.663D-03     0.04     0.00     0.02
   5     -0.2366190429 -1.716D-04  1.214D-03     0.04     0.00     0.02
   6     -0.2366553291 -3.629D-05  4.270D-04     0.04     0.00     0.02
   7     -0.2366580493 -2.720D-06  1.502D-04     0.04     0.00     0.02
   8     -0.2366569486  1.101D-06  1.797D-04     0.03     0.00     0.02
   9     -0.2366556422  1.306D-06  4.755D-05     0.04     0.00     0.02
  10     -0.2366553366  3.056D-07  1.378D-05     0.03     0.00     0.02
  11     -0.2366553171  1.950D-08  1.898D-06     0.03     0.00     0.02
  12     -0.2366553390 -2.186D-08  7.031D-07     0.04     0.00     0.02
                  *************converged*************
-------------------------------------------------------------------------

 -----------
 CCSD Energy
 -----------
 Reference energy:            -100.034050960433746
 CCSD corr. energy:             -0.236655339005008
 Total CCSD energy:           -100.270706299438757


 --------------------------------
 Spin Component Scaled (SCS) CCSD
 --------------------------------
 Same spin contribution:                 -0.054625421385667
 Same spin scaling factor:                1.130000000000000
 Opposite spin contribution:             -0.182029917619341
 Opposite spin scaling fact.:             1.270000000000000
 SCS-CCSD correlation energy:            -0.292904721542367
 Total SCS-CCSD energy:                -100.326955681976116

 routine      calls  cpu(0)   cpu-min  cpu-ave  cpu-max   i/o 
 aoccsd          1     0.01     0.01     0.01     0.01    0.00
 iterdrv         1     0.04     0.04     0.04     0.04    0.00
 pampt          12     0.05     0.05     0.05     0.05    0.00
 t2pm           12     0.03     0.03     0.03     0.03    0.00
 sxy            12     0.02     0.02     0.05     0.06    0.00
 ints         6080     0.06     0.04     0.05     0.06    0.00
 f_write        64     0.00     0.00     0.00     0.00    0.00
 t2eri         384     0.12     0.09     0.11     0.12    0.00
 idx2          384     0.04     0.04     0.04     0.04    0.00
 idx34          12     0.00     0.00     0.00     0.00    0.00
 ht2pm          12     0.04     0.04     0.04     0.04    0.00
 itm            12     0.11     0.11     0.11     0.11    0.00
 pdiis          12     0.00     0.00     0.00     0.00    0.00
 r_read        352     0.01     0.01     0.01     0.01    0.00
 Total                 0.54     0.54     0.54     0.54    0.00
 step     1 energy        -100.27070630
                                 NWChem SCF Module
                                 -----------------


                                 CCSD/daug-cc-pVDZ



  ao basis        = "ao basis"
  functions       =    48
  atoms           =     2
  closed shells   =     5
  open shells     =     0
  charge          =   0.00
  wavefunction    = RHF 
  input vectors   = ./molecule.movecs
  output vectors  = ./molecule.movecs
  use symmetry    = F
  symmetry adapt  = F


 Forming initial guess at      48.3s


 Starting SCF solution at      48.3s



       Final RHF  results 
       ------------------ 

         Total SCF energy =   -100.034783933991
      One-electron energy =   -150.526414257647
      Two-electron energy =     45.271954694159
 Nuclear repulsion energy =      5.219675629497

        Time for solution =      0.1s




                   Four-Index Transformation
                   -------------------------
          Number of basis functions:             48
          Number of shells:                      19
          Number of occupied orbitals:            5
          Number of occ. correlated orbitals:     5
          Block length:                          16
          Superscript MO index range:      1 -    5
          Subscript MO index range:        1 -   48
          MO coefficients read from:  ./molecule.movecs        
          Number of operator matrices in core:   30
          Half-transformed integrals produced

     Pass:    1     Index range:    1  -    5     Time:      0.04


 ****************************************************************************
              the segmented parallel ccsd program:    6 nodes
 ****************************************************************************




 level of theory    ccsd
 number of core         0
 number of occupied     5
 number of virtual     43
 number of deleted      0
 total functions       48
 number of shells      19
 basis label          566



   ***** ccsd parameters *****
   iprt   =     0
   convi  =  0.100E-05
   maxit  =    20
   mxvec  =     5
 memory             52424180
  Using  1 OpenMP thread(s) in CCSD
  Recompile w/ USE_OPENMP=1 to use threads in CCSD
  Restarting from old vector in ./molecule.t2


-------------------------------------------------------------------------
 iter     correlation     delta       rms       T2     Non-T2      Main
             energy      energy      error      ampl     ampl      Block
                                                time     time      time
-------------------------------------------------------------------------
   1     -0.2361175028 -2.361D-01  9.581D-02     0.09     0.00     0.07
   2     -0.2335496192  2.568D-03  4.006D-02     0.03     0.00     0.01
   3     -0.2354845224 -1.935D-03  1.179D-02     0.04     0.00     0.01
   4     -0.2356726801 -1.882D-04  5.514D-03     0.05     0.00     0.02
   5     -0.2358803954 -2.077D-04  1.100D-03     0.04     0.00     0.02
   6     -0.2359062414 -2.585D-05  2.969D-04     0.04     0.00     0.02
   7     -0.2359036435  2.598D-06  2.321D-04     0.04     0.00     0.02
   8     -0.2359020460  1.597D-06  5.389D-05     0.03     0.00     0.02
   9     -0.2359019595  8.650D-08  2.623D-05     0.04     0.00     0.02
  10     -0.2359018774  8.214D-08  3.807D-06     0.04     0.00     0.02
  11     -0.2359019028 -2.542D-08  8.300D-07     0.03     0.00     0.02
                  *************converged*************
-------------------------------------------------------------------------

 -----------
 CCSD Energy
 -----------
 Reference energy:            -100.034783933990909
 CCSD corr. energy:             -0.235901902796923
 Total CCSD energy:           -100.270685836787834


 --------------------------------
 Spin Component Scaled (SCS) CCSD
 --------------------------------
 Same spin contribution:                 -0.054549435294114
 Same spin scaling factor:                1.130000000000000
 Opposite spin contribution:             -0.181352467502809
 Opposite spin scaling fact.:             1.270000000000000
 SCS-CCSD correlation energy:            -0.291958495610916
 Total SCS-CCSD energy:                -100.326742429601822

 routine      calls  cpu(0)   cpu-min  cpu-ave  cpu-max   i/o 
 aoccsd          1     0.01     0.01     0.01     0.01    0.00
 iterdrv         1     0.04     0.04     0.04     0.04    0.00
 pampt          11     0.05     0.05     0.05     0.05    0.00
 t2pm           11     0.03     0.03     0.03     0.03    0.00
 sxy            11     0.02     0.02     0.04     0.06    0.00
 ints         6080     0.06     0.04     0.05     0.06    0.00
 f_write        64     0.00     0.00     0.00     0.00    0.00
 t2eri         352     0.11     0.09     0.10     0.11    0.00
 idx2          352     0.04     0.03     0.04     0.04    0.00
 idx34          11     0.00     0.00     0.00     0.00    0.00
 ht2pm          11     0.04     0.04     0.04     0.04    0.00
 itm            11     0.11     0.11     0.11     0.11    0.00
 pdiis          11     0.00     0.00     0.00     0.00    0.00
 r_read        320     0.01     0.01     0.01     0.01    0.00
 Total                 0.51     0.51     0.51     0.51    0.00
 step    -1 energy        -100.27068584
            gradient        -0.001023


                         CCSD ENERGY GRADIENTS

    atom               coordinates                        gradient
                 x          y          z           x          y          z
   1 F       0.000000   0.000000  -0.173519    0.000000   0.000000   0.000723
   2 H       0.000000   0.000000   1.564869    0.000000   0.000000  -0.000723


  
  finite difference hessian delta =    1.0000000000000000E-003

              1        2        3        4        5        6      
    1   -0.0000   0.0000   0.0000   0.0001   0.0000   0.0000
    2    0.0000  -0.0000   0.0000   0.0000   0.0001   0.0000
    3    0.0000   0.0000   0.6180   0.0000   0.0000  -0.6180
    4    0.0001   0.0000   0.0000  -0.0001   0.0000   0.0000
    5    0.0000   0.0001   0.0000   0.0000  -0.0001   0.0000
    6    0.0000   0.0000  -0.6180   0.0000   0.0000   0.6180
  


  Vibrational analysis via the FX method 

  See chapter 2 in "Molecular Vibrations" by Wilson, Decius and Cross

  Vib: Default input used 

  Nuclear Hessian passed symmetry test 



 ---------------------------- Atom information ----------------------------
     atom    #        X              Y              Z            mass
 --------------------------------------------------------------------------
    F        1  0.0000000D+00  0.0000000D+00 -1.7351855D-01  1.8998400D+01
    H        2  0.0000000D+00  0.0000000D+00  1.5658687D+00  1.0078250D+00
 --------------------------------------------------------------------------




          ----------------------------------------------------
          MASS-WEIGHTED NUCLEAR HESSIAN (Hartree/Bohr/Bohr/Kamu)
          ----------------------------------------------------


               1            2            3            4            5            6
   ----- ----- ----- ----- -----
    1   -1.51457D-03
    2    0.00000D+00 -1.43588D-03
    3    0.00000D+00  0.00000D+00  3.25304D+01
    4    1.36898D-02  0.00000D+00  0.00000D+00 -5.94379D-02
    5    0.00000D+00  1.38452D-02  0.00000D+00  0.00000D+00 -6.01127D-02
    6    0.00000D+00  0.00000D+00 -1.41226D+02  0.00000D+00  0.00000D+00  6.13169D+02



          -------------------------------------------------
          NORMAL MODE EIGENVECTORS IN CARTESIAN COORDINATES
          -------------------------------------------------
                 (Frequencies expressed in cm-1)

                    1           2           3           4           5           6
 
 Frequency        -40.87      -40.64        6.42        6.64        8.77     4130.65
 
           1     0.00000    -0.05024     0.22386     0.00000     0.00000     0.00000
           2    -0.05017     0.00000     0.00000     0.22387     0.00000     0.00000
           3     0.00000     0.00000     0.00000     0.00000     0.22357    -0.05149
           4     0.00000     0.97193     0.21814     0.00000     0.00000     0.00000
           5     0.97200     0.00000     0.00000     0.21783     0.00000     0.00000
           6     0.00000     0.00000     0.00000     0.00000     0.22357     0.97070


        Vibrational analysis via the FX method 
  --- with translations and rotations projected out ---
  --- via the Eckart algorithm                      ---
 Dependent rotation vector no.                    3
  found in ECKART; assuming linear geometry

          --------------------------------------------------------
          MASS-WEIGHTED PROJECTED HESSIAN (Hartree/Bohr/Bohr/Kamu)
          --------------------------------------------------------


               1            2            3            4            5            6
   ----- ----- ----- ----- -----
    1    0.00000D+00
    2    0.00000D+00  0.00000D+00
    3    0.00000D+00  0.00000D+00  3.25281D+01
    4    0.00000D+00  0.00000D+00  0.00000D+00  0.00000D+00
    5    0.00000D+00  0.00000D+00  0.00000D+00  0.00000D+00  0.00000D+00
    6    0.00000D+00  0.00000D+00 -1.41229D+02  0.00000D+00  0.00000D+00  6.13183D+02

 center of mass
 --------------
 x =   0.00000000 y =   0.00000000 z =  -0.08589593

 moments of inertia (a.u.)
 ------------------
           2.895539880414           0.000000000000           0.000000000000
           0.000000000000           2.895539880414           0.000000000000
           0.000000000000           0.000000000000           0.000000000000

 Rotational Constants
 --------------------
 A=   0.000000 cm-1  (  0.000000 K)
 B=  20.790657 cm-1  ( 29.912449 K)
 C=  20.790657 cm-1  ( 29.912449 K)


 Temperature                      =   298.15K
 frequency scaling parameter      =   1.0000


 Linear Molecule                   

 Zero-Point correction to Energy  =    5.902 kcal/mol  (  0.009406 au)
 Thermal correction to Energy     =    7.383 kcal/mol  (  0.011765 au)
 Thermal correction to Enthalpy   =    7.975 kcal/mol  (  0.012709 au)

 Total Entropy                    =   41.460 cal/mol-K
   - Translational                =   34.906 cal/mol-K (mol. weight =  20.0062)
   - Rotational                   =    6.554 cal/mol-K (symmetry #  =        1)
   - Vibrational                  =    0.000 cal/mol-K

 Cv (constant volume heat capacity) =    4.966 cal/mol-K
   - Translational                  =    2.979 cal/mol-K
   - Rotational                     =    1.986 cal/mol-K
   - Vibrational                    =    0.000 cal/mol-K



          -------------------------------------------------
          NORMAL MODE EIGENVECTORS IN CARTESIAN COORDINATES
          -------------------------------------------------
             (Projected Frequencies expressed in cm-1)

                    1           2           3           4           5           6
 
 P.Frequency       -0.00        0.00        0.00        0.00        0.00     4130.70
 
           1     0.00000     0.22943     0.00000     0.00000     0.00000     0.00000
           2     0.00000     0.00000     0.22943     0.00000     0.00000     0.00000
           3     0.22357     0.00000     0.00000     0.00000     0.00000    -0.05149
           4     0.00000     0.00000     0.00000     0.99611     0.00000     0.00000
           5     0.00000     0.00000     0.00000     0.00000     0.99611     0.00000
           6     0.22357     0.00000     0.00000     0.00000     0.00000     0.97070
 vib:animation  F


                                NWChem Input Module
                                -------------------




                                     CITATION
                                     --------
                Please cite the following reference when publishing
                           results obtained with NWChem:

          E. Apra, E. J. Bylaska, W. A. de Jong, N. Govind, K. Kowalski,
       T. P. Straatsma, M. Valiev, H. J. J. van Dam, Y. Alexeev, J. Anchell,
       V. Anisimov, F. W. Aquino, R. Atta-Fynn, J. Autschbach, N. P. Bauman,
     J. C. Becca, D. E. Bernholdt, K. Bhaskaran-Nair, S. Bogatko, P. Borowski,
         J. Boschen, J. Brabec, A. Bruner, E. Cauet, Y. Chen, G. N. Chuev,
      C. J. Cramer, J. Daily, M. J. O. Deegan, T. H. Dunning Jr., M. Dupuis,
   K. G. Dyall, G. I. Fann, S. A. Fischer, A. Fonari, H. Fruchtl, L. Gagliardi,
      J. Garza, N. Gawande, S. Ghosh, K. Glaesemann, A. W. Gotz, J. Hammond,
       V. Helms, E. D. Hermes, K. Hirao, S. Hirata, M. Jacquelin, L. Jensen,
   B. G. Johnson, H. Jonsson, R. A. Kendall, M. Klemm, R. Kobayashi, V. Konkov,
      S. Krishnamoorthy, M. Krishnan, Z. Lin, R. D. Lins, R. J. Littlefield,
      A. J. Logsdail, K. Lopata, W. Ma, A. V. Marenich, J. Martin del Campo,
   D. Mejia-Rodriguez, J. E. Moore, J. M. Mullin, T. Nakajima, D. R. Nascimento,
    J. A. Nichols, P. J. Nichols, J. Nieplocha, A. Otero-de-la-Roza, B. Palmer,
    A. Panyala, T. Pirojsirikul, B. Peng, R. Peverati, J. Pittner, L. Pollack,
   R. M. Richard, P. Sadayappan, G. C. Schatz, W. A. Shelton, D. W. Silverstein,
   D. M. A. Smith, T. A. Soares, D. Song, M. Swart, H. L. Taylor, G. S. Thomas,
            V. Tipparaju, D. G. Truhlar, K. Tsemekhman, T. Van Voorhis,
      A. Vazquez-Mayagoitia, P. Verma, O. Villa, A. Vishnu, K. D. Vogiatzis,
        D. Wang, J. H. Weare, M. J. Williamson, T. L. Windus, K. Wolinski,
        A. T. Wong, Q. Wu, C. Yang, Q. Yu, M. Zacharias, Z. Zhang, Y. Zhao,
                                and R. J. Harrison
                        "NWChem: Past, present, and future
                         J. Chem. Phys. 152, 184102 (2020)
                               doi:10.1063/5.0004997

                                      AUTHORS
                                      -------
  E. Apra, E. J. Bylaska, N. Govind, K. Kowalski, M. Valiev, D. Mejia-Rodriguez,
       A. Kunitsa, N. P. Bauman, A. Panyala, W. A. de Jong, T. P. Straatsma,
   H. J. J. van Dam, D. Wang, T. L. Windus, J. Hammond, J. Autschbach, A. Woods,
    K. Bhaskaran-Nair, J. Brabec, K. Lopata, S. A. Fischer, S. Krishnamoorthy,
     M. Jacquelin, W. Ma, M. Klemm, O. Villa, Y. Chen, V. Anisimov, F. Aquino,
     S. Hirata, M. T. Hackler, E. Hermes, L. Jensen, J. E. Moore, J. C. Becca,
      V. Konjkov, T. Risthaus, M. Malagoli, A. Marenich, A. Otero-de-la-Roza,
        J. Mullin, P. Nichols, R. Peverati, J. Pittner, Y. Zhao, P.-D. Fan,
        A. Fonari, M. J. Williamson, R. J. Harrison, J. R. Rehr, M. Dupuis,
     D. Silverstein, D. M. A. Smith, J. Nieplocha, V. Tipparaju, M. Krishnan,
     B. E. Van Kuiken, A. Vazquez-Mayagoitia, M. Swart, Q. Wu, T. Van Voorhis,
     A. A. Auer, M. Nooijen, L. D. Crosby, E. Brown, G. Cisneros, G. I. Fann,
   H. Fruchtl, J. Garza, K. Hirao, R. A. Kendall, J. A. Nichols, K. Tsemekhman,
    K. Wolinski, J. Anchell, D. E. Bernholdt, P. Borowski, T. Clark, D. Clerc,
   H. Dachsel, M. J. O. Deegan, K. Dyall, D. Elwood, E. Glendening, M. Gutowski,
   A. C. Hess, J. Jaffe, B. G. Johnson, J. Ju, R. Kobayashi, R. Kutteh, Z. Lin,
   R. Littlefield, X. Long, B. Meng, T. Nakajima, S. Niu, L. Pollack, M. Rosing,
   K. Glaesemann, G. Sandrone, M. Stave, H. Taylor, G. Thomas, J. H. van Lenthe,
                               A. T. Wong, Z. Zhang.

 Total times  cpu:       45.8s     wall:       49.0s
