 argument  1 = Xe.ecp_dft.nw
                                         
                                         


             Northwest Computational Chemistry Package (NWChem) 7.2.2
             --------------------------------------------------------


                    Environmental Molecular Sciences Laboratory
                       Pacific Northwest National Laboratory
                                Richland, WA 99352

                              Copyright (c) 1994-2022
                       Pacific Northwest National Laboratory
                            Battelle Memorial Institute

             NWChem is an open-source computational chemistry package
                        distributed under the terms of the
                      Educational Community License (ECL) 2.0
             A copy of the license is included with this distribution
                              in the LICENSE.TXT file

                                  ACKNOWLEDGMENT
                                  --------------

            This software and its documentation were developed at the
            EMSL at Pacific Northwest National Laboratory, a multiprogram
            national laboratory, operated for the U.S. Department of Energy
            by Battelle under Contract Number DE-AC05-76RL01830. Support
            for this work was provided by the Department of Energy Office
            of Biological and Environmental Research, Office of Basic
            Energy Sciences, and the Office of Advanced Scientific Computing.


           Job information
           ---------------

    hostname        = MIRO
    program         = nwchem
    date            = Thu Feb 19 07:26:40 2026

    compiled        = Mon_Apr_01_11:12:32_2024
    source          = /build/nwchem-qbYJLs/nwchem-7.2.2/build-openmpi
    nwchem branch   = 7.2.2
    nwchem revision = N/A
    ga revision     = N/A
    use scalapack   = T
    input           = Xe.ecp_dft.nw
    prefix          = Xe.ecp_dft.
    data base       = ./Xe.ecp_dft.db
    status          = startup
    nproc           =        4
    time left       =     -1s



           Memory information
           ------------------

    heap     =   26214396 doubles =    200.0 Mbytes
    stack    =   26214401 doubles =    200.0 Mbytes
    global   =   52428800 doubles =    400.0 Mbytes (distinct from heap & stack)
    total    =  104857597 doubles =    800.0 Mbytes
    verify   = yes
    hardfail = no 


           Directory information
           ---------------------

  0 permanent = .
  0 scratch   = .




                                NWChem Input Module
                                -------------------


                              Xe atom ECP calculation
                              -----------------------

 Scaling coordinates for geometry "geometry" by  1.889725989
 (inverse scale =  0.529177249)



                             Geometry "geometry" -> ""
                             -------------------------

 Output coordinates in angstroms (scale by  1.889725989 to convert to a.u.)

  No.       Tag          Charge          X              Y              Z
 ---- ---------------- ---------- -------------- -------------- --------------
    1 Xe                  54.0000     0.00000000     0.00000000     0.00000000

      Atomic Mass 
      ----------- 

      Xe               131.904200


 Effective nuclear repulsion energy (a.u.)       0.0000000000

            Nuclear Dipole moment (a.u.) 
            ----------------------------
        X                 Y               Z
 ---------------- ---------------- ----------------
     0.0000000000     0.0000000000     0.0000000000


            XYZ format geometry
            -------------------
     1
 geometry
 Xe                    0.00000000     0.00000000     0.00000000

                      Basis "ao basis" -> "" (cartesian)
                      -----
  Xe (Xenon)
  ----------
            Exponent  Coefficients 
       -------------- ---------------------------------------------------------
  1 S  6.42024817E+03  0.000251
  1 S  9.83545307E+02  0.001625
  1 S  2.19438814E+02  0.004604
  1 S  2.30125878E+01 -0.146987
  1 S  1.80483245E+01  0.575249

  2 S  1.17525502E+01  0.660384
  2 S  6.23909172E+00  0.384705

  3 S  2.62572113E+00  1.000000

  4 S  1.29050429E+00  1.000000

  5 S  3.62041851E-01  1.000000

  6 S  1.40698881E-01  1.000000

  7 P  1.93814325E+02  0.000954
  7 P  2.17252281E+01  0.057393
  7 P  9.88916056E+00 -0.279743

  8 P  1.39606838E+01 -0.050950
  8 P  4.09289471E+00  0.366692
  8 P  2.25468155E+00  0.726195
  8 P  1.15465962E+00  0.355559

  9 P  5.23219231E-01  1.000000

 10 P  2.19455698E-01  1.000000

 11 P  8.61589968E-02  1.000000

 12 D  1.35603000E+02  0.000819
 12 D  3.87270627E+01  0.006090
 12 D  1.53773281E+01 -0.009278
 12 D  5.26025377E+00  0.228908
 12 D  2.65906274E+00  0.444344
 12 D  1.29382051E+00  0.360295

 13 D  5.80508301E-01  1.000000

 14 D  1.80000000E-01  1.000000

 15 F  4.96527930E-01  1.000000

 16 F  2.50000000E+00  1.000000



 Summary of "ao basis" -> "" (cartesian)
 ------------------------------------------------------------------------------
       Tag                 Description            Shells   Functions and Types
 ---------------- ------------------------------  ------  ---------------------
 Xe                         def2-svp                16       59   6s5p3d2f


                 ECP       "ecp basis" -> "" (cartesian)
                -----
  Xe (Xenon) Replaces    28 electrons
  -----------------------------------
             Channel    R-exponent     Exponent     Coefficients
         ------------ ---------------------------------------------------------
  1 U L       Both         2.00       20.881557     -23.089295
  1 U L       Both         2.00       20.783443     -30.074475
  1 U L       Both         2.00        5.253389      -0.288227
  1 U L       Both         2.00        5.361188      -0.386924

  2 U-s       Both         2.00       40.005184      49.997962
  2 U-s       Both         2.00       17.812214     281.013303
  2 U-s       Both         2.00        9.304150      61.538255
  2 U-s       Both         2.00       20.881557      23.089295
  2 U-s       Both         2.00       20.783443      30.074475
  2 U-s       Both         2.00        5.253389       0.288227
  2 U-s       Both         2.00        5.361188       0.386924

  3 U-p       Both         2.00       15.701772      67.439142
  3 U-p       Both         2.00       15.258608     134.874711
  3 U-p       Both         2.00        9.292184      14.663300
  3 U-p       Both         2.00        8.559003      29.354730
  3 U-p       Both         2.00       20.881557      23.089295
  3 U-p       Both         2.00       20.783443      30.074475
  3 U-p       Both         2.00        5.253389       0.288227
  3 U-p       Both         2.00        5.361188       0.386924

  4 U-d       Both         2.00       15.185600      35.436908
  4 U-d       Both         2.00       14.284500      53.195772
  4 U-d       Both         2.00        7.121889       9.046232
  4 U-d       Both         2.00        6.991963      13.223681
  4 U-d       Both         2.00        0.623946       0.084853
  4 U-d       Both         2.00        0.647284       0.044155
  4 U-d       Both         2.00       20.881557      23.089295
  4 U-d       Both         2.00       20.783443      30.074475
  4 U-d       Both         2.00        5.253389       0.288227
  4 U-d       Both         2.00        5.361188       0.386924

  WARNING: movecs_in_org=atomic not equal to movecs_in=./Xe.ecp_dft.movecs


                                     CITATION
                                     --------
                Please cite the following reference when publishing
                           results obtained with NWChem:

          E. Apra, E. J. Bylaska, W. A. de Jong, N. Govind, K. Kowalski,
       T. P. Straatsma, M. Valiev, H. J. J. van Dam, Y. Alexeev, J. Anchell,
       V. Anisimov, F. W. Aquino, R. Atta-Fynn, J. Autschbach, N. P. Bauman,
     J. C. Becca, D. E. Bernholdt, K. Bhaskaran-Nair, S. Bogatko, P. Borowski,
         J. Boschen, J. Brabec, A. Bruner, E. Cauet, Y. Chen, G. N. Chuev,
      C. J. Cramer, J. Daily, M. J. O. Deegan, T. H. Dunning Jr., M. Dupuis,
   K. G. Dyall, G. I. Fann, S. A. Fischer, A. Fonari, H. Fruchtl, L. Gagliardi,
      J. Garza, N. Gawande, S. Ghosh, K. Glaesemann, A. W. Gotz, J. Hammond,
       V. Helms, E. D. Hermes, K. Hirao, S. Hirata, M. Jacquelin, L. Jensen,
   B. G. Johnson, H. Jonsson, R. A. Kendall, M. Klemm, R. Kobayashi, V. Konkov,
      S. Krishnamoorthy, M. Krishnan, Z. Lin, R. D. Lins, R. J. Littlefield,
      A. J. Logsdail, K. Lopata, W. Ma, A. V. Marenich, J. Martin del Campo,
   D. Mejia-Rodriguez, J. E. Moore, J. M. Mullin, T. Nakajima, D. R. Nascimento,
    J. A. Nichols, P. J. Nichols, J. Nieplocha, A. Otero-de-la-Roza, B. Palmer,
    A. Panyala, T. Pirojsirikul, B. Peng, R. Peverati, J. Pittner, L. Pollack,
   R. M. Richard, P. Sadayappan, G. C. Schatz, W. A. Shelton, D. W. Silverstein,
   D. M. A. Smith, T. A. Soares, D. Song, M. Swart, H. L. Taylor, G. S. Thomas,
            V. Tipparaju, D. G. Truhlar, K. Tsemekhman, T. Van Voorhis,
      A. Vazquez-Mayagoitia, P. Verma, O. Villa, A. Vishnu, K. D. Vogiatzis,
        D. Wang, J. H. Weare, M. J. Williamson, T. L. Windus, K. Wolinski,
        A. T. Wong, Q. Wu, C. Yang, Q. Yu, M. Zacharias, Z. Zhang, Y. Zhao,
                                and R. J. Harrison
                        "NWChem: Past, present, and future
                         J. Chem. Phys. 152, 184102 (2020)
                               doi:10.1063/5.0004997

                                      AUTHORS
                                      -------
  E. Apra, E. J. Bylaska, N. Govind, K. Kowalski, M. Valiev, D. Mejia-Rodriguez,
       A. Kunitsa, N. P. Bauman, A. Panyala, W. A. de Jong, T. P. Straatsma,
   H. J. J. van Dam, D. Wang, T. L. Windus, J. Hammond, J. Autschbach, A. Woods,
    K. Bhaskaran-Nair, J. Brabec, K. Lopata, S. A. Fischer, S. Krishnamoorthy,
     M. Jacquelin, W. Ma, M. Klemm, O. Villa, Y. Chen, V. Anisimov, F. Aquino,
     S. Hirata, M. T. Hackler, E. Hermes, L. Jensen, J. E. Moore, J. C. Becca,
      V. Konjkov, T. Risthaus, M. Malagoli, A. Marenich, A. Otero-de-la-Roza,
        J. Mullin, P. Nichols, R. Peverati, J. Pittner, Y. Zhao, P.-D. Fan,
        A. Fonari, M. J. Williamson, R. J. Harrison, J. R. Rehr, M. Dupuis,
     D. Silverstein, D. M. A. Smith, J. Nieplocha, V. Tipparaju, M. Krishnan,
     B. E. Van Kuiken, A. Vazquez-Mayagoitia, M. Swart, Q. Wu, T. Van Voorhis,
     A. A. Auer, M. Nooijen, L. D. Crosby, E. Brown, G. Cisneros, G. I. Fann,
   H. Fruchtl, J. Garza, K. Hirao, R. A. Kendall, J. A. Nichols, K. Tsemekhman,
    K. Wolinski, J. Anchell, D. E. Bernholdt, P. Borowski, T. Clark, D. Clerc,
   H. Dachsel, M. J. O. Deegan, K. Dyall, D. Elwood, E. Glendening, M. Gutowski,
   A. C. Hess, J. Jaffe, B. G. Johnson, J. Ju, R. Kobayashi, R. Kutteh, Z. Lin,
   R. Littlefield, X. Long, B. Meng, T. Nakajima, S. Niu, L. Pollack, M. Rosing,
   K. Glaesemann, G. Sandrone, M. Stave, H. Taylor, G. Thomas, J. H. van Lenthe,
                               A. T. Wong, Z. Zhang.

 Total times  cpu:        2.6s     wall:        2.0s
