 argument  1 = Xe.ecp_dft.nw
                                         
                                         


             Northwest Computational Chemistry Package (NWChem) 7.2.2
             --------------------------------------------------------


                    Environmental Molecular Sciences Laboratory
                       Pacific Northwest National Laboratory
                                Richland, WA 99352

                              Copyright (c) 1994-2022
                       Pacific Northwest National Laboratory
                            Battelle Memorial Institute

             NWChem is an open-source computational chemistry package
                        distributed under the terms of the
                      Educational Community License (ECL) 2.0
             A copy of the license is included with this distribution
                              in the LICENSE.TXT file

                                  ACKNOWLEDGMENT
                                  --------------

            This software and its documentation were developed at the
            EMSL at Pacific Northwest National Laboratory, a multiprogram
            national laboratory, operated for the U.S. Department of Energy
            by Battelle under Contract Number DE-AC05-76RL01830. Support
            for this work was provided by the Department of Energy Office
            of Biological and Environmental Research, Office of Basic
            Energy Sciences, and the Office of Advanced Scientific Computing.


           Job information
           ---------------

    hostname        = MIRO
    program         = nwchem
    date            = Thu Feb 19 07:35:13 2026

    compiled        = Mon_Apr_01_11:12:32_2024
    source          = /build/nwchem-qbYJLs/nwchem-7.2.2/build-openmpi
    nwchem branch   = 7.2.2
    nwchem revision = N/A
    ga revision     = N/A
    use scalapack   = T
    input           = Xe.ecp_dft.nw
    prefix          = Xe.ecp_dft.
    data base       = ./Xe.ecp_dft.db
    status          = restart
    nproc           =        4
    time left       =     -1s



           Memory information
           ------------------

    heap     =   26214398 doubles =    200.0 Mbytes
    stack    =   26214395 doubles =    200.0 Mbytes
    global   =   52428800 doubles =    400.0 Mbytes (distinct from heap & stack)
    total    =  104857593 doubles =    800.0 Mbytes
    verify   = yes
    hardfail = no 


           Directory information
           ---------------------

  0 permanent = .
  0 scratch   = .


           Previous task information
           -------------------------

    Theory    = dft                             
    Operation = energy                        
    Status    = ok                            
    Qmmm      = F
    Ignore    = F


           Geometries in the database
           --------------------------

       Name                              Natoms  Last Modified
       --------------------------------  ------  ------------------------
    1  geometry                               1  Thu Feb 19 07:29:19 2026  

  The geometry named "geometry" is the default for restart



           Basis sets in the database
           --------------------------

       Name                              Natoms  Last Modified
        --------------------------------  ------  ------------------------
    1  ao basis                               1  Thu Feb 19 07:29:19 2026  
    2  ecp basis                              1  Thu Feb 19 07:29:19 2026  

  The basis set named "ao basis" is the default AO basis for restart




                                NWChem Input Module
                                -------------------


                              Xe atom ECP calculation
                              -----------------------

 Scaling coordinates for geometry "geometry" by  1.889725989
 (inverse scale =  0.529177249)



                             Geometry "geometry" -> ""
                             -------------------------

 Output coordinates in angstroms (scale by  1.889725989 to convert to a.u.)

  No.       Tag          Charge          X              Y              Z
 ---- ---------------- ---------- -------------- -------------- --------------
    1 Xe                  54.0000     0.00000000     0.00000000     0.00000000

      Atomic Mass 
      ----------- 

      Xe               131.904200


 Effective nuclear repulsion energy (a.u.)       0.0000000000

            Nuclear Dipole moment (a.u.) 
            ----------------------------
        X                 Y               Z
 ---------------- ---------------- ----------------
     0.0000000000     0.0000000000     0.0000000000


            XYZ format geometry
            -------------------
     1
 geometry
 Xe                    0.00000000     0.00000000     0.00000000

                      Basis "ao basis" -> "" (cartesian)
                      -----
  Xe (Xenon)
  ----------
            Exponent  Coefficients 
       -------------- ---------------------------------------------------------
  1 S  6.42024817E+03  0.000251
  1 S  9.83545307E+02  0.001625
  1 S  2.19438814E+02  0.004604
  1 S  2.30125878E+01 -0.146987
  1 S  1.80483245E+01  0.575249

  2 S  1.17525502E+01  0.660384
  2 S  6.23909172E+00  0.384705

  3 S  2.62572113E+00  1.000000

  4 S  1.29050429E+00  1.000000

  5 S  3.62041851E-01  1.000000

  6 S  1.40698881E-01  1.000000

  7 P  1.93814325E+02  0.000954
  7 P  2.17252281E+01  0.057393
  7 P  9.88916056E+00 -0.279743

  8 P  1.39606838E+01 -0.050950
  8 P  4.09289471E+00  0.366692
  8 P  2.25468155E+00  0.726195
  8 P  1.15465962E+00  0.355559

  9 P  5.23219231E-01  1.000000

 10 P  2.19455698E-01  1.000000

 11 P  8.61589968E-02  1.000000

 12 D  1.35603000E+02  0.000819
 12 D  3.87270627E+01  0.006090
 12 D  1.53773281E+01 -0.009278
 12 D  5.26025377E+00  0.228908
 12 D  2.65906274E+00  0.444344
 12 D  1.29382051E+00  0.360295

 13 D  5.80508301E-01  1.000000

 14 D  1.80000000E-01  1.000000

 15 F  4.96527930E-01  1.000000

 16 F  2.50000000E+00  1.000000



 Summary of "ao basis" -> "" (cartesian)
 ------------------------------------------------------------------------------
       Tag                 Description            Shells   Functions and Types
 ---------------- ------------------------------  ------  ---------------------
 Xe                         def2-svp                16       59   6s5p3d2f


                 ECP       "ecp basis" -> "" (cartesian)
                -----
  Xe (Xenon) Replaces    28 electrons
  -----------------------------------
             Channel    R-exponent     Exponent     Coefficients
         ------------ ---------------------------------------------------------
  1 U L       Both         2.00       20.881557     -23.089295
  1 U L       Both         2.00       20.783443     -30.074475
  1 U L       Both         2.00        5.253389      -0.288227
  1 U L       Both         2.00        5.361188      -0.386924

  2 U-s       Both         2.00       40.005184      49.997962
  2 U-s       Both         2.00       17.812214     281.013303
  2 U-s       Both         2.00        9.304150      61.538255
  2 U-s       Both         2.00       20.881557      23.089295
  2 U-s       Both         2.00       20.783443      30.074475
  2 U-s       Both         2.00        5.253389       0.288227
  2 U-s       Both         2.00        5.361188       0.386924

  3 U-p       Both         2.00       15.701772      67.439142
  3 U-p       Both         2.00       15.258608     134.874711
  3 U-p       Both         2.00        9.292184      14.663300
  3 U-p       Both         2.00        8.559003      29.354730
  3 U-p       Both         2.00       20.881557      23.089295
  3 U-p       Both         2.00       20.783443      30.074475
  3 U-p       Both         2.00        5.253389       0.288227
  3 U-p       Both         2.00        5.361188       0.386924

  4 U-d       Both         2.00       15.185600      35.436908
  4 U-d       Both         2.00       14.284500      53.195772
  4 U-d       Both         2.00        7.121889       9.046232
  4 U-d       Both         2.00        6.991963      13.223681
  4 U-d       Both         2.00        0.623946       0.084853
  4 U-d       Both         2.00        0.647284       0.044155
  4 U-d       Both         2.00       20.881557      23.089295
  4 U-d       Both         2.00       20.783443      30.074475
  4 U-d       Both         2.00        5.253389       0.288227
  4 U-d       Both         2.00        5.361188       0.386924


                                 NWChem DFT Module
                                 -----------------


                              Xe atom ECP calculation




 Summary of "ao basis" -> "ao basis" (cartesian)
 ------------------------------------------------------------------------------
       Tag                 Description            Shells   Functions and Types
 ---------------- ------------------------------  ------  ---------------------
 Xe                         def2-svp                16       59   6s5p3d2f


  Caching 1-el integrals 

            General Information
            -------------------
          SCF calculation type: DFT
          Wavefunction type:  closed shell.
          No. of atoms     :     1
          No. of electrons :    26
           Alpha electrons :    13
            Beta electrons :    13
          Charge           :     0
          Spin multiplicity:     1
          Use of symmetry is: off; symmetry adaption is: off
          Maximum number of iterations:  50
          AO basis - number of functions:    59
                     number of shells:    16
          Convergence on energy requested:  1.00D-06
          Convergence on density requested:  1.00D-05
          Convergence on gradient requested:  5.00D-04

              XC Information
              --------------
                         B3LYP Method XC Potential
                     Hartree-Fock (Exact) Exchange  0.200          
                        Slater Exchange Functional  0.800 local    
                    Becke 1988 Exchange Functional  0.720 non-local
              Lee-Yang-Parr Correlation Functional  0.810          
                  VWN I RPA Correlation Functional  0.190 local    

             Grid Information
             ----------------
          Grid used for XC integration:  medium    
          Radial quadrature: Mura-Knowles        
          Angular quadrature: Lebedev. 
          Tag              B.-S. Rad. Rad. Pts. Rad. Cut. Ang. Pts.
          ---              ---------- --------- --------- ---------
          Xe                  1.40      123           6.0       590
          Grid pruning is: on 
          Number of quadrature shells:   123
          Spatial weights used:  Erf1

          Convergence Information
          -----------------------
          Convergence aids based upon iterative change in 
          total energy or number of iterations. 
          Levelshifting, if invoked, occurs when the 
          HOMO/LUMO gap drops below (HL_TOL):  1.00D-02
          DIIS, if invoked, will attempt to extrapolate 
          using up to (NFOCK): 10 stored Fock matrices.

                    Damping( 0%)  Levelshifting(0.5)       DIIS
                  --------------- ------------------- ---------------
          dE  on:    start            ASAP                start   
          dE off:    2 iters         50 iters            50 iters 


      Screening Tolerance Information
      -------------------------------
          Density screening/tol_rho:  1.00D-10
          AO Gaussian exp screening on grid/accAOfunc:  14
          CD Gaussian exp screening on grid/accCDfunc:  20
          XC Gaussian exp screening on grid/accXCfunc:  20
          Schwarz screening/accCoul:  1.00D-08


 Loading old vectors from job with title :

Xe atom ECP calculation

   Time after variat. SCF:      0.2
   Time prior to 1st pass:      0.2

 #quartets = 9.316D+03 #integrals = 2.543D+05 #direct =  0.0% #cached =100.0%


 Integral file          = ./Xe.ecp_dft.aoints.0
 Record size in doubles =  65536        No. of integs per rec  =  43688
 Max. records in memory =     15        Max. records in file   = 423669
 No. of bits per label  =      8        No. of bits per value  =     64


File balance: exchanges=     0  moved=     0  time=   0.0


 Grid_pts file          = ./Xe.ecp_dft.gridpts.0
 Record size in doubles =  12289        No. of grid_pts per rec  =   3070
 Max. records in memory =      8        Max. recs in file   =   2259387


           Memory utilization after 1st SCF pass: 
           Heap Space remaining (MW):       25.12            25116966
          Stack Space remaining (MW):       26.21            26213996

   convergence    iter        energy       DeltaE   RMS-Dens  Diis-err    time
 ---------------- ----- ----------------- --------- --------- ---------  ------
 d= 0,ls=0.0,diis     1   -329.4653070360 -3.29D+02  8.57D-03  9.61D-02     0.6
 d= 0,ls=0.0,diis     2   -329.4671805098 -1.87D-03  1.88D-03  7.23D-03     0.9
 d= 0,ls=0.0,diis     3   -329.4673734803 -1.93D-04  6.95D-04  9.05D-04     1.3
 d= 0,ls=0.0,diis     4   -329.4674180345 -4.46D-05  1.67D-04  2.26D-05     1.6
 d= 0,ls=0.0,diis     5   -329.4674203861 -2.35D-06  1.42D-06  1.71D-09     2.0
 d= 0,ls=0.0,diis     6   -329.4674203863 -2.21D-10  2.51D-08  1.02D-13     2.5


         Total DFT energy =     -329.467420386338
      One electron energy =     -571.865913425706
           Coulomb energy =      266.212977797560
    Exchange-Corr. energy =      -23.814484758191
 Nuclear repulsion energy =        0.000000000000

 Numeric. integr. density =       26.000000005917

     Total iterative time =      2.3s



                       DFT Final Molecular Orbital Analysis
                       ------------------------------------

 Vector    1  Occ=2.000000D+00  E=-7.465656D+00
              MO Center=  1.8D-16, -1.5D-16,  3.8D-16, r^2= 1.6D-01
   Bfn.  Coefficient  Atom+Function         Bfn.  Coefficient  Atom+Function  
  ----- ------------  ---------------      ----- ------------  ---------------
     2      1.054456  1 Xe s                  3     -0.870228  1 Xe s          
     4     -0.495358  1 Xe s                  1     -0.438152  1 Xe s          
     5     -0.094737  1 Xe s                  6      0.049521  1 Xe s          

 Vector    2  Occ=2.000000D+00  E=-5.373444D+00
              MO Center= -3.2D-16,  8.6D-17,  5.5D-17, r^2= 1.9D-01
   Bfn.  Coefficient  Atom+Function         Bfn.  Coefficient  Atom+Function  
  ----- ------------  ---------------      ----- ------------  ---------------
    12      0.849143  1 Xe pz                11      0.656494  1 Xe py         
     9      0.150970  1 Xe pz                10     -0.123003  1 Xe px         
     8      0.116719  1 Xe py                15      0.030384  1 Xe pz         

 Vector    3  Occ=2.000000D+00  E=-5.373444D+00
              MO Center= -8.7D-17,  7.6D-17,  3.4D-16, r^2= 1.9D-01
   Bfn.  Coefficient  Atom+Function         Bfn.  Coefficient  Atom+Function  
  ----- ------------  ---------------      ----- ------------  ---------------
    10      0.827247  1 Xe px                12      0.496029  1 Xe pz         
    11     -0.486595  1 Xe py                 7      0.147077  1 Xe px         
     9      0.088190  1 Xe pz                 8     -0.086512  1 Xe py         
    13      0.029601  1 Xe px         

 Vector    4  Occ=2.000000D+00  E=-5.373444D+00
              MO Center=  1.2D-15, -5.1D-17,  8.4D-16, r^2= 1.9D-01
   Bfn.  Coefficient  Atom+Function         Bfn.  Coefficient  Atom+Function  
  ----- ------------  ---------------      ----- ------------  ---------------
    11      0.706682  1 Xe py                10      0.683879  1 Xe px         
    12     -0.447290  1 Xe pz                 8      0.125642  1 Xe py         
     7      0.121588  1 Xe px                 9     -0.079524  1 Xe pz         
    14      0.025286  1 Xe py         

 Vector    5  Occ=2.000000D+00  E=-2.271537D+00
              MO Center=  3.0D-17,  3.2D-16, -3.5D-16, r^2= 2.5D-01
   Bfn.  Coefficient  Atom+Function         Bfn.  Coefficient  Atom+Function  
  ----- ------------  ---------------      ----- ------------  ---------------
    26      1.534835  1 Xe dyz               23      0.450330  1 Xe dxy        
    32      0.200793  1 Xe dyz               24      0.187729  1 Xe dxz        
    29      0.058914  1 Xe dxy        

 Vector    6  Occ=2.000000D+00  E=-2.271537D+00
              MO Center=  1.4D-16, -3.7D-17,  2.5D-16, r^2= 2.5D-01
   Bfn.  Coefficient  Atom+Function         Bfn.  Coefficient  Atom+Function  
  ----- ------------  ---------------      ----- ------------  ---------------
    24      1.488485  1 Xe dxz               23      0.476991  1 Xe dxy        
    26     -0.322537  1 Xe dyz               30      0.194729  1 Xe dxz        
    22      0.113600  1 Xe dxx               27     -0.105733  1 Xe dzz        
    29      0.062402  1 Xe dxy               32     -0.042196  1 Xe dyz        

 Vector    7  Occ=2.000000D+00  E=-2.271537D+00
              MO Center= -3.3D-16,  4.2D-16,  8.5D-17, r^2= 2.5D-01
   Bfn.  Coefficient  Atom+Function         Bfn.  Coefficient  Atom+Function  
  ----- ------------  ---------------      ----- ------------  ---------------
    23      1.467861  1 Xe dxy               24     -0.540152  1 Xe dxz        
    26     -0.367096  1 Xe dyz               29      0.192031  1 Xe dxy        
    30     -0.070665  1 Xe dxz               22     -0.059821  1 Xe dxx        
    25      0.059730  1 Xe dyy               32     -0.048025  1 Xe dyz        

 Vector    8  Occ=2.000000D+00  E=-2.271537D+00
              MO Center=  9.7D-17,  6.2D-17,  4.6D-16, r^2= 2.5D-01
   Bfn.  Coefficient  Atom+Function         Bfn.  Coefficient  Atom+Function  
  ----- ------------  ---------------      ----- ------------  ---------------
    25      0.899922  1 Xe dyy               27     -0.646952  1 Xe dzz        
    22     -0.252970  1 Xe dxx               31      0.117731  1 Xe dyy        
    23     -0.101592  1 Xe dxy               33     -0.084637  1 Xe dzz        
    28     -0.033094  1 Xe dxx        

 Vector    9  Occ=2.000000D+00  E=-2.271537D+00
              MO Center= -3.4D-16,  1.3D-16, -2.1D-16, r^2= 2.5D-01
   Bfn.  Coefficient  Atom+Function         Bfn.  Coefficient  Atom+Function  
  ----- ------------  ---------------      ----- ------------  ---------------
    22      0.885772  1 Xe dxx               27     -0.659697  1 Xe dzz        
    24     -0.229458  1 Xe dxz               25     -0.226076  1 Xe dyy        
    28      0.115880  1 Xe dxx               33     -0.086304  1 Xe dzz        
    30     -0.030019  1 Xe dxz               31     -0.029576  1 Xe dyy        
    26      0.028243  1 Xe dyz        

 Vector   10  Occ=2.000000D+00  E=-7.928390D-01
              MO Center=  8.0D-16,  6.5D-16,  3.8D-15, r^2= 1.1D+00
   Bfn.  Coefficient  Atom+Function         Bfn.  Coefficient  Atom+Function  
  ----- ------------  ---------------      ----- ------------  ---------------
     5      0.908652  1 Xe s                  4     -0.687942  1 Xe s          
     2      0.612847  1 Xe s                  3     -0.614960  1 Xe s          
     6      0.509410  1 Xe s                  1     -0.236243  1 Xe s          
    22      0.073386  1 Xe dxx               25      0.073386  1 Xe dyy        
    27      0.073386  1 Xe dzz               28     -0.028140  1 Xe dxx        

 Vector   11  Occ=2.000000D+00  E=-3.388541D-01
              MO Center=  7.0D-15,  1.1D-16, -1.1D-15, r^2= 1.7D+00
   Bfn.  Coefficient  Atom+Function         Bfn.  Coefficient  Atom+Function  
  ----- ------------  ---------------      ----- ------------  ---------------
    16     -0.495356  1 Xe px                10      0.451733  1 Xe px         
    13     -0.338737  1 Xe px                19     -0.231954  1 Xe px         
    17     -0.213865  1 Xe py                11      0.195031  1 Xe py         
    18     -0.158528  1 Xe pz                14     -0.146246  1 Xe py         
    12      0.144567  1 Xe pz                15     -0.108405  1 Xe pz         

 Vector   12  Occ=2.000000D+00  E=-3.388541D-01
              MO Center=  7.4D-16, -1.8D-15,  2.0D-15, r^2= 1.7D+00
   Bfn.  Coefficient  Atom+Function         Bfn.  Coefficient  Atom+Function  
  ----- ------------  ---------------      ----- ------------  ---------------
    17     -0.453044  1 Xe py                11      0.413147  1 Xe py         
    14     -0.309803  1 Xe py                16      0.261615  1 Xe px         
    10     -0.238576  1 Xe px                20     -0.212141  1 Xe py         
    18     -0.206289  1 Xe pz                12      0.188122  1 Xe pz         
    13      0.178899  1 Xe px                15     -0.141066  1 Xe pz         

 Vector   13  Occ=2.000000D+00  E=-3.388541D-01
              MO Center=  6.1D-16,  2.0D-15, -3.5D-16, r^2= 1.7D+00
   Bfn.  Coefficient  Atom+Function         Bfn.  Coefficient  Atom+Function  
  ----- ------------  ---------------      ----- ------------  ---------------
    18     -0.498558  1 Xe pz                12      0.454653  1 Xe pz         
    15     -0.340927  1 Xe pz                17      0.255459  1 Xe py         
    11     -0.232963  1 Xe py                21     -0.233453  1 Xe pz         
    14      0.174690  1 Xe py                20      0.119621  1 Xe py         
     9      0.062467  1 Xe pz                16      0.049261  1 Xe px         

 Vector   14  Occ=0.000000D+00  E= 1.695675D-01
              MO Center=  1.8D-14,  1.4D-14, -1.2D-14, r^2= 6.0D+00
   Bfn.  Coefficient  Atom+Function         Bfn.  Coefficient  Atom+Function  
  ----- ------------  ---------------      ----- ------------  ---------------
    16      1.422490  1 Xe px                19     -1.218765  1 Xe px         
    17      1.135388  1 Xe py                20     -0.972781  1 Xe py         
    18     -0.947570  1 Xe pz                21      0.811862  1 Xe pz         
    40     -0.280263  1 Xe fxxx              43     -0.280263  1 Xe fxyy       
    45     -0.280263  1 Xe fxzz              41     -0.223697  1 Xe fxxy       

 Vector   15  Occ=0.000000D+00  E= 1.695675D-01
              MO Center=  4.3D-14, -8.6D-15,  4.3D-14, r^2= 6.0D+00
   Bfn.  Coefficient  Atom+Function         Bfn.  Coefficient  Atom+Function  
  ----- ------------  ---------------      ----- ------------  ---------------
    18      1.448659  1 Xe pz                16      1.364369  1 Xe px         
    21     -1.241186  1 Xe pz                19     -1.168968  1 Xe px         
    17     -0.500354  1 Xe py                20      0.428695  1 Xe py         
    42     -0.285419  1 Xe fxxz              47     -0.285419  1 Xe fyyz       
    49     -0.285419  1 Xe fzzz              40     -0.268812  1 Xe fxxx       

 Vector   16  Occ=0.000000D+00  E= 1.695675D-01
              MO Center= -2.8D-14,  9.9D-14,  4.8D-14, r^2= 6.0D+00
   Bfn.  Coefficient  Atom+Function         Bfn.  Coefficient  Atom+Function  
  ----- ------------  ---------------      ----- ------------  ---------------
    17      1.634323  1 Xe py                20     -1.400260  1 Xe py         
    18      1.101803  1 Xe pz                21     -0.944006  1 Xe pz         
    16     -0.570517  1 Xe px                19      0.488810  1 Xe px         
    41     -0.321999  1 Xe fxxy              46     -0.321999  1 Xe fyyy       
    48     -0.321999  1 Xe fyzz              11     -0.251977  1 Xe py         

 Vector   17  Occ=0.000000D+00  E= 1.884909D-01
              MO Center= -2.8D-14, -7.7D-14, -7.9D-14, r^2= 3.7D+00
   Bfn.  Coefficient  Atom+Function         Bfn.  Coefficient  Atom+Function  
  ----- ------------  ---------------      ----- ------------  ---------------
     6      6.231528  1 Xe s                  4     -2.168302  1 Xe s          
    34     -2.120174  1 Xe dxx               37     -2.120174  1 Xe dyy        
    39     -2.120174  1 Xe dzz               28     -0.830111  1 Xe dxx        
    31     -0.830111  1 Xe dyy               33     -0.830111  1 Xe dzz        
     2      0.557580  1 Xe s                 22      0.295086  1 Xe dxx        

 Vector   18  Occ=0.000000D+00  E= 2.078569D-01
              MO Center= -7.9D-15,  1.1D-15,  6.0D-15, r^2= 2.6D+00
   Bfn.  Coefficient  Atom+Function         Bfn.  Coefficient  Atom+Function  
  ----- ------------  ---------------      ----- ------------  ---------------
    34      0.933995  1 Xe dxx               39     -0.656291  1 Xe dzz        
    37     -0.277703  1 Xe dyy               22     -0.232990  1 Xe dxx        
    27      0.163715  1 Xe dzz               36     -0.163568  1 Xe dxz        
    28      0.077499  1 Xe dxx               25      0.069275  1 Xe dyy        
    33     -0.054456  1 Xe dzz               35      0.051851  1 Xe dxy        

 Vector   19  Occ=0.000000D+00  E= 2.078569D-01
              MO Center= -1.0D-14, -9.3D-15,  3.7D-15, r^2= 2.6D+00
   Bfn.  Coefficient  Atom+Function         Bfn.  Coefficient  Atom+Function  
  ----- ------------  ---------------      ----- ------------  ---------------
    35      0.752094  1 Xe dxy               37      0.715140  1 Xe dyy        
    36     -0.546697  1 Xe dxz               38     -0.549367  1 Xe dyz        
    39     -0.507096  1 Xe dzz               34     -0.208044  1 Xe dxx        
    23     -0.187614  1 Xe dxy               25     -0.178396  1 Xe dyy        
    24      0.136376  1 Xe dxz               26      0.137043  1 Xe dyz        

 Vector   20  Occ=0.000000D+00  E= 2.078569D-01
              MO Center= -5.8D-15, -4.7D-15,  4.8D-15, r^2= 2.6D+00
   Bfn.  Coefficient  Atom+Function         Bfn.  Coefficient  Atom+Function  
  ----- ------------  ---------------      ----- ------------  ---------------
    36      1.365670  1 Xe dxz               37      0.456693  1 Xe dyy        
    39     -0.423182  1 Xe dzz               35     -0.350538  1 Xe dxy        
    24     -0.340674  1 Xe dxz               38      0.156698  1 Xe dyz        
    25     -0.113924  1 Xe dyy               30      0.113318  1 Xe dxz        
    27      0.105565  1 Xe dzz               23      0.087444  1 Xe dxy        

 Vector   21  Occ=0.000000D+00  E= 2.078569D-01
              MO Center=  7.7D-15, -9.6D-15, -2.3D-15, r^2= 2.6D+00
   Bfn.  Coefficient  Atom+Function         Bfn.  Coefficient  Atom+Function  
  ----- ------------  ---------------      ----- ------------  ---------------
    38      1.206860  1 Xe dyz               36     -0.699674  1 Xe dxz        
    35     -0.677507  1 Xe dxy               37      0.351140  1 Xe dyy        
    26     -0.301058  1 Xe dyz               39     -0.236941  1 Xe dzz        
    24      0.174537  1 Xe dxz               23      0.169008  1 Xe dxy        
    34     -0.114199  1 Xe dxx               32      0.100141  1 Xe dyz        

 Vector   22  Occ=0.000000D+00  E= 2.078569D-01
              MO Center= -2.8D-15, -3.8D-15, -2.7D-15, r^2= 2.6D+00
   Bfn.  Coefficient  Atom+Function         Bfn.  Coefficient  Atom+Function  
  ----- ------------  ---------------      ----- ------------  ---------------
    35      1.280550  1 Xe dxy               38      1.003464  1 Xe dyz        
    36      0.331369  1 Xe dxz               23     -0.319440  1 Xe dxy        
    26     -0.250320  1 Xe dyz               29      0.106255  1 Xe dxy        
    37     -0.097978  1 Xe dyy               32      0.083263  1 Xe dyz        
    39      0.083200  1 Xe dzz               24     -0.082662  1 Xe dxz        

 Vector   23  Occ=0.000000D+00  E= 8.675137D-01
              MO Center= -1.8D-15,  4.3D-16,  1.6D-15, r^2= 1.1D+00
   Bfn.  Coefficient  Atom+Function         Bfn.  Coefficient  Atom+Function  
  ----- ------------  ---------------      ----- ------------  ---------------
    44      1.590433  1 Xe fxyz              47     -1.248144  1 Xe fyyz       
    45     -1.053732  1 Xe fxzz              41     -1.014949  1 Xe fxxy       
    43      0.500244  1 Xe fxyy              54      0.482411  1 Xe fxyz       
    57     -0.378587  1 Xe fyyz              49      0.351716  1 Xe fzzz       
    55     -0.319618  1 Xe fxzz              51     -0.307855  1 Xe fxxy       

 Vector   24  Occ=0.000000D+00  E= 8.675137D-01
              MO Center= -9.5D-16, -1.0D-16, -1.3D-15, r^2= 1.1D+00
   Bfn.  Coefficient  Atom+Function         Bfn.  Coefficient  Atom+Function  
  ----- ------------  ---------------      ----- ------------  ---------------
    43      1.513321  1 Xe fxyy              45     -1.429379  1 Xe fxzz       
    47      1.050507  1 Xe fyyz              44     -0.641299  1 Xe fxyz       
    53      0.459021  1 Xe fxyy              55     -0.433560  1 Xe fxzz       
    57      0.318640  1 Xe fyyz              49     -0.316563  1 Xe fzzz       
    54     -0.194519  1 Xe fxyz              48      0.145255  1 Xe fyzz       

 Vector   25  Occ=0.000000D+00  E= 8.675137D-01
              MO Center=  2.6D-16, -1.4D-16, -2.0D-16, r^2= 1.1D+00
   Bfn.  Coefficient  Atom+Function         Bfn.  Coefficient  Atom+Function  
  ----- ------------  ---------------      ----- ------------  ---------------
    44      1.647300  1 Xe fxyz              47      1.327454  1 Xe fyyz       
    41     -1.011560  1 Xe fxxy              43     -0.544491  1 Xe fxyy       
    49     -0.529169  1 Xe fzzz              54      0.499660  1 Xe fxyz       
    46      0.410263  1 Xe fyyy              57      0.402644  1 Xe fyyz       
    51     -0.306827  1 Xe fxxy              42      0.260052  1 Xe fxxz       

 Vector   26  Occ=0.000000D+00  E= 8.675137D-01
              MO Center=  1.7D-15,  2.0D-16, -7.5D-16, r^2= 1.1D+00
   Bfn.  Coefficient  Atom+Function         Bfn.  Coefficient  Atom+Function  
  ----- ------------  ---------------      ----- ------------  ---------------
    42      1.731925  1 Xe fxxz              44     -0.990867  1 Xe fxyz       
    48      0.709626  1 Xe fyzz              43     -0.661476  1 Xe fxyy       
    52      0.525328  1 Xe fxxz              45     -0.484900  1 Xe fxzz       
    49     -0.459281  1 Xe fzzz              40      0.382125  1 Xe fxxx       
    47     -0.354084  1 Xe fyyz              54     -0.300550  1 Xe fxyz       

 Vector   27  Occ=0.000000D+00  E= 8.675137D-01
              MO Center= -3.7D-16, -5.2D-16, -2.5D-16, r^2= 1.1D+00
   Bfn.  Coefficient  Atom+Function         Bfn.  Coefficient  Atom+Function  
  ----- ------------  ---------------      ----- ------------  ---------------
    44      2.262684  1 Xe fxyz              41      1.332888  1 Xe fxxy       
    54      0.686318  1 Xe fxyz              42      0.636342  1 Xe fxxz       
    46     -0.518306  1 Xe fyyy              43      0.409521  1 Xe fxyy       
    51      0.404292  1 Xe fxxy              48      0.222030  1 Xe fyzz       
    49     -0.196695  1 Xe fzzz              52      0.193015  1 Xe fxxz       

 Vector   28  Occ=0.000000D+00  E= 8.675137D-01
              MO Center= -4.5D-16,  6.2D-16, -2.4D-15, r^2= 1.1D+00
   Bfn.  Coefficient  Atom+Function         Bfn.  Coefficient  Atom+Function  
  ----- ------------  ---------------      ----- ------------  ---------------
    42      1.101186  1 Xe fxxz              43      1.079243  1 Xe fxyy       
    45      0.859197  1 Xe fxzz              48     -0.791033  1 Xe fyzz       
    40     -0.646147  1 Xe fxxx              44     -0.474581  1 Xe fxyz       
    47     -0.474740  1 Xe fyyz              46      0.373706  1 Xe fyyy       
    52      0.334012  1 Xe fxxz              41     -0.330084  1 Xe fxxy       

 Vector   29  Occ=0.000000D+00  E= 8.675137D-01
              MO Center= -4.4D-17, -5.1D-16,  1.1D-16, r^2= 1.1D+00
   Bfn.  Coefficient  Atom+Function         Bfn.  Coefficient  Atom+Function  
  ----- ------------  ---------------      ----- ------------  ---------------
    48      1.875004  1 Xe fyzz              41     -0.911895  1 Xe fxxy       
    45      0.767441  1 Xe fxzz              58      0.568727  1 Xe fyzz       
    43      0.430791  1 Xe fxyy              40     -0.399411  1 Xe fxxx       
    46     -0.321036  1 Xe fyyy              51     -0.276596  1 Xe fxxy       
    42     -0.245586  1 Xe fxxz              55      0.232781  1 Xe fxzz       

 Vector   30  Occ=0.000000D+00  E= 9.794713D-01
              MO Center= -3.1D-15,  1.1D-14, -7.6D-16, r^2= 3.4D+00
   Bfn.  Coefficient  Atom+Function         Bfn.  Coefficient  Atom+Function  
  ----- ------------  ---------------      ----- ------------  ---------------
    16      3.721754  1 Xe px                17     -3.214226  1 Xe py         
    40     -1.288982  1 Xe fxxx              43     -1.288982  1 Xe fxyy       
    45     -1.288982  1 Xe fxzz              13     -1.228569  1 Xe px         
    41      1.113206  1 Xe fxxy              46      1.113206  1 Xe fyyy       
    48      1.113206  1 Xe fyzz              14      1.061032  1 Xe py         

 Vector   31  Occ=0.000000D+00  E= 9.794713D-01
              MO Center=  1.5D-14,  1.2D-14,  5.0D-15, r^2= 3.4D+00
   Bfn.  Coefficient  Atom+Function         Bfn.  Coefficient  Atom+Function  
  ----- ------------  ---------------      ----- ------------  ---------------
    17      3.636179  1 Xe py                16      2.963760  1 Xe px         
    18      1.536227  1 Xe pz                41     -1.259344  1 Xe fxxy       
    46     -1.259344  1 Xe fyyy              48     -1.259344  1 Xe fyzz       
    14     -1.200321  1 Xe py                20     -1.037311  1 Xe py         
    40     -1.026461  1 Xe fxxx              43     -1.026461  1 Xe fxyy       

 Vector   32  Occ=0.000000D+00  E= 9.794713D-01
              MO Center=  1.0D-15, -1.6D-15,  5.2D-15, r^2= 3.4D+00
   Bfn.  Coefficient  Atom+Function         Bfn.  Coefficient  Atom+Function  
  ----- ------------  ---------------      ----- ------------  ---------------
    18      4.671478  1 Xe pz                42     -1.617907  1 Xe fxxz       
    47     -1.617907  1 Xe fyyz              49     -1.617907  1 Xe fzzz       
    15     -1.542078  1 Xe pz                21     -1.332655  1 Xe pz         
    16     -1.315424  1 Xe px                17     -0.901455  1 Xe py         
    12      0.509390  1 Xe pz                40      0.455580  1 Xe fxxx       

 Vector   33  Occ=0.000000D+00  E= 1.290745D+00
              MO Center= -4.1D-15, -1.7D-14, -5.1D-15, r^2= 2.7D+00
   Bfn.  Coefficient  Atom+Function         Bfn.  Coefficient  Atom+Function  
  ----- ------------  ---------------      ----- ------------  ---------------
     6     21.551214  1 Xe s                  5     -5.901676  1 Xe s          
    34     -5.382398  1 Xe dxx               37     -5.382398  1 Xe dyy        
    39     -5.382398  1 Xe dzz                4     -4.406728  1 Xe s          
    28     -2.637616  1 Xe dxx               31     -2.637616  1 Xe dyy        
    33     -2.637616  1 Xe dzz                3      1.372068  1 Xe s          

 Vector   34  Occ=0.000000D+00  E= 1.384745D+00
              MO Center= -1.2D-15, -1.1D-15, -4.6D-16, r^2= 1.5D+00
   Bfn.  Coefficient  Atom+Function         Bfn.  Coefficient  Atom+Function  
  ----- ------------  ---------------      ----- ------------  ---------------
    29      2.070559  1 Xe dxy               30      1.383342  1 Xe dxz        
    35     -1.135963  1 Xe dxy               23     -1.044341  1 Xe dxy        
    36     -0.758938  1 Xe dxz               24     -0.697725  1 Xe dxz        
    32      0.178583  1 Xe dyz               38     -0.097975  1 Xe dyz        
    26     -0.090073  1 Xe dyz               31      0.031314  1 Xe dyy        

 Vector   35  Occ=0.000000D+00  E= 1.384745D+00
              MO Center= -7.9D-16,  5.7D-16, -6.4D-17, r^2= 1.5D+00
   Bfn.  Coefficient  Atom+Function         Bfn.  Coefficient  Atom+Function  
  ----- ------------  ---------------      ----- ------------  ---------------
    30      2.040597  1 Xe dxz               29     -1.327845  1 Xe dxy        
    36     -1.119525  1 Xe dxz               24     -1.029229  1 Xe dxz        
    35      0.728491  1 Xe dxy               23      0.669734  1 Xe dxy        
    31     -0.283394  1 Xe dyy               32     -0.260479  1 Xe dyz        
    37      0.155477  1 Xe dyy               33      0.148818  1 Xe dzz        

 Vector   36  Occ=0.000000D+00  E= 1.384745D+00
              MO Center=  2.5D-17,  5.3D-17, -9.2D-16, r^2= 1.5D+00
   Bfn.  Coefficient  Atom+Function         Bfn.  Coefficient  Atom+Function  
  ----- ------------  ---------------      ----- ------------  ---------------
    32      2.476780  1 Xe dyz               38     -1.358827  1 Xe dyz        
    26     -1.249229  1 Xe dyz               29     -0.289603  1 Xe dxy        
    35      0.158884  1 Xe dxy               23      0.146069  1 Xe dxy        
    30      0.115140  1 Xe dxz               36     -0.063169  1 Xe dxz        
    24     -0.058074  1 Xe dxz               28      0.036472  1 Xe dxx        

 Vector   37  Occ=0.000000D+00  E= 1.384745D+00
              MO Center= -3.2D-15, -1.6D-14,  4.8D-15, r^2= 1.5D+00
   Bfn.  Coefficient  Atom+Function         Bfn.  Coefficient  Atom+Function  
  ----- ------------  ---------------      ----- ------------  ---------------
    31      1.324849  1 Xe dyy               33     -1.095245  1 Xe dzz        
    37     -0.726847  1 Xe dyy               25     -0.668222  1 Xe dyy        
    39      0.600881  1 Xe dzz               27      0.552416  1 Xe dzz        
    30      0.356503  1 Xe dxz               29     -0.306240  1 Xe dxy        
    28     -0.229604  1 Xe dxx               36     -0.195587  1 Xe dxz        

 Vector   38  Occ=0.000000D+00  E= 1.384745D+00
              MO Center= -1.6D-15,  6.7D-17, -2.4D-15, r^2= 1.5D+00
   Bfn.  Coefficient  Atom+Function         Bfn.  Coefficient  Atom+Function  
  ----- ------------  ---------------      ----- ------------  ---------------
    28      1.416529  1 Xe dxx               33     -0.925345  1 Xe dzz        
    34     -0.777145  1 Xe dxx               22     -0.714464  1 Xe dxx        
    39      0.507669  1 Xe dzz               31     -0.491184  1 Xe dyy        
    27      0.466722  1 Xe dzz               37      0.269476  1 Xe dyy        
    25      0.247741  1 Xe dyy               30     -0.134809  1 Xe dxz        

 Vector   39  Occ=0.000000D+00  E= 2.912891D+00
              MO Center=  2.5D-16,  5.3D-15, -5.2D-17, r^2= 1.8D+00
   Bfn.  Coefficient  Atom+Function         Bfn.  Coefficient  Atom+Function  
  ----- ------------  ---------------      ----- ------------  ---------------
    17      4.633374  1 Xe py                41     -3.832557  1 Xe fxxy       
    46     -3.832557  1 Xe fyyy              48     -3.832557  1 Xe fyzz       
    14      2.605530  1 Xe py                16     -1.396289  1 Xe px         
    11     -1.177010  1 Xe py                40      1.154959  1 Xe fxxx       
    43      1.154959  1 Xe fxyy              45      1.154959  1 Xe fxzz       

 Vector   40  Occ=0.000000D+00  E= 2.912891D+00
              MO Center= -4.2D-15, -1.3D-15, -1.5D-15, r^2= 1.8D+00
   Bfn.  Coefficient  Atom+Function         Bfn.  Coefficient  Atom+Function  
  ----- ------------  ---------------      ----- ------------  ---------------
    16      4.414892  1 Xe px                40     -3.651837  1 Xe fxxx       
    43     -3.651837  1 Xe fxyy              45     -3.651837  1 Xe fxzz       
    13      2.482670  1 Xe px                18      1.447987  1 Xe pz         
    17      1.354991  1 Xe py                42     -1.197722  1 Xe fxxz       
    47     -1.197722  1 Xe fyyz              49     -1.197722  1 Xe fzzz       

 Vector   41  Occ=0.000000D+00  E= 2.912891D+00
              MO Center=  4.2D-15,  5.0D-16, -1.4D-14, r^2= 1.8D+00
   Bfn.  Coefficient  Atom+Function         Bfn.  Coefficient  Atom+Function  
  ----- ------------  ---------------      ----- ------------  ---------------
    18      4.617479  1 Xe pz                42     -3.819409  1 Xe fxxz       
    47     -3.819409  1 Xe fyyz              49     -3.819409  1 Xe fzzz       
    15      2.596592  1 Xe pz                16     -1.408206  1 Xe px         
    12     -1.172973  1 Xe pz                40      1.164817  1 Xe fxxx       
    43      1.164817  1 Xe fxyy              45      1.164817  1 Xe fxzz       

 Vector   42  Occ=0.000000D+00  E= 3.171791D+00
              MO Center=  4.6D-17,  5.1D-18, -2.0D-16, r^2= 4.9D-01
   Bfn.  Coefficient  Atom+Function         Bfn.  Coefficient  Atom+Function  
  ----- ------------  ---------------      ----- ------------  ---------------
    58      2.024007  1 Xe fyzz              51     -1.078279  1 Xe fxxy       
    48     -1.062638  1 Xe fyzz              57      1.013010  1 Xe fyyz       
    54     -0.872399  1 Xe fxyz              52     -0.663653  1 Xe fxxz       
    41      0.566114  1 Xe fxxy              47     -0.531847  1 Xe fyyz       
    44      0.458024  1 Xe fxyz              42      0.348429  1 Xe fxxz       

 Vector   43  Occ=0.000000D+00  E= 3.171791D+00
              MO Center=  3.4D-15,  1.0D-15, -2.7D-15, r^2= 4.9D-01
   Bfn.  Coefficient  Atom+Function         Bfn.  Coefficient  Atom+Function  
  ----- ------------  ---------------      ----- ------------  ---------------
    55      1.396302  1 Xe fxzz              51      1.169814  1 Xe fxxy       
    53     -1.102880  1 Xe fxyy              57      1.096733  1 Xe fyyz       
    54     -1.070139  1 Xe fxyz              52     -0.899167  1 Xe fxxz       
    45     -0.733082  1 Xe fxzz              41     -0.614172  1 Xe fxxy       
    43      0.579031  1 Xe fxyy              47     -0.575803  1 Xe fyyz       

 Vector   44  Occ=0.000000D+00  E= 3.171791D+00
              MO Center=  1.5D-16,  1.3D-16, -9.8D-17, r^2= 4.9D-01
   Bfn.  Coefficient  Atom+Function         Bfn.  Coefficient  Atom+Function  
  ----- ------------  ---------------      ----- ------------  ---------------
    54      2.036806  1 Xe fxyz              57      1.562199  1 Xe fyyz       
    52     -1.109964  1 Xe fxxz              44     -1.069357  1 Xe fxyz       
    47     -0.820180  1 Xe fyyz              58     -0.812666  1 Xe fyzz       
    42      0.582749  1 Xe fxxz              55     -0.545290  1 Xe fxzz       
    53      0.469623  1 Xe fxyy              48      0.426663  1 Xe fyzz       

 Vector   45  Occ=0.000000D+00  E= 3.171791D+00
              MO Center= -1.3D-16, -9.8D-18, -1.2D-16, r^2= 4.9D-01
   Bfn.  Coefficient  Atom+Function         Bfn.  Coefficient  Atom+Function  
  ----- ------------  ---------------      ----- ------------  ---------------
    52      1.867640  1 Xe fxxz              42     -0.980542  1 Xe fxxz       
    57      0.952693  1 Xe fyyz              59     -0.940111  1 Xe fzzz       
    54      0.658291  1 Xe fxyz              47     -0.500180  1 Xe fyyz       
    49      0.493574  1 Xe fzzz              44     -0.345614  1 Xe fxyz       
    53     -0.340979  1 Xe fxyy              55      0.313961  1 Xe fxzz       

 Vector   46  Occ=0.000000D+00  E= 3.171791D+00
              MO Center= -2.4D-16, -1.7D-17, -1.8D-16, r^2= 4.9D-01
   Bfn.  Coefficient  Atom+Function         Bfn.  Coefficient  Atom+Function  
  ----- ------------  ---------------      ----- ------------  ---------------
    51      1.794474  1 Xe fxxy              55     -1.395872  1 Xe fxzz       
    41     -0.942129  1 Xe fxxy              45      0.732856  1 Xe fxzz       
    56     -0.720369  1 Xe fyyy              53      0.589247  1 Xe fxyy       
    46      0.378206  1 Xe fyyy              58      0.366633  1 Xe fyzz       
    43     -0.309365  1 Xe fxyy              50      0.268875  1 Xe fxxx       

 Vector   47  Occ=0.000000D+00  E= 3.171791D+00
              MO Center= -2.3D-16, -7.8D-17, -2.4D-16, r^2= 4.9D-01
   Bfn.  Coefficient  Atom+Function         Bfn.  Coefficient  Atom+Function  
  ----- ------------  ---------------      ----- ------------  ---------------
    54      2.903264  1 Xe fxyz              44     -1.524262  1 Xe fxyz       
    58      0.979518  1 Xe fyzz              55      0.946873  1 Xe fxzz       
    57     -0.612150  1 Xe fyyz              48     -0.514263  1 Xe fyzz       
    53     -0.501036  1 Xe fxyy              45     -0.497124  1 Xe fxzz       
    56     -0.396667  1 Xe fyyy              47      0.321389  1 Xe fyyz       

 Vector   48  Occ=0.000000D+00  E= 3.171791D+00
              MO Center= -1.0D-16, -2.0D-17,  1.1D-16, r^2= 4.9D-01
   Bfn.  Coefficient  Atom+Function         Bfn.  Coefficient  Atom+Function  
  ----- ------------  ---------------      ----- ------------  ---------------
    53      1.956230  1 Xe fxyy              43     -1.027054  1 Xe fxyy       
    50     -0.946864  1 Xe fxxx              55      0.884361  1 Xe fxzz       
    40      0.497119  1 Xe fxxx              45     -0.464304  1 Xe fxzz       
    51      0.341601  1 Xe fxxy              54     -0.225507  1 Xe fxyz       
    41     -0.179346  1 Xe fxxy              44      0.118395  1 Xe fxyz       

 Vector   49  Occ=0.000000D+00  E= 3.810964D+00
              MO Center= -6.7D-16,  2.0D-15,  3.7D-15, r^2= 1.5D+00
   Bfn.  Coefficient  Atom+Function         Bfn.  Coefficient  Atom+Function  
  ----- ------------  ---------------      ----- ------------  ---------------
     5     26.631518  1 Xe s                  4    -20.598038  1 Xe s          
    28     -9.842067  1 Xe dxx               31     -9.842067  1 Xe dyy        
    33     -9.842067  1 Xe dzz                6      6.324544  1 Xe s          
     2      2.836290  1 Xe s                 22      2.444971  1 Xe dxx        
    25      2.444971  1 Xe dyy               27      2.444971  1 Xe dzz        

 Vector   50  Occ=0.000000D+00  E= 9.695675D+00
              MO Center= -6.0D-16, -3.9D-15,  4.2D-15, r^2= 6.0D-01
   Bfn.  Coefficient  Atom+Function         Bfn.  Coefficient  Atom+Function  
  ----- ------------  ---------------      ----- ------------  ---------------
    15      2.033318  1 Xe pz                52     -1.971092  1 Xe fxxz       
    57     -1.971092  1 Xe fyyz              59     -1.971092  1 Xe fzzz       
    14     -1.939287  1 Xe py                12      1.880156  1 Xe pz         
    51      1.879939  1 Xe fxxy              56      1.879939  1 Xe fyyy       
    58      1.879939  1 Xe fyzz              11     -1.793209  1 Xe py         

 Vector   51  Occ=0.000000D+00  E= 9.695675D+00
              MO Center=  2.3D-15,  9.2D-15,  9.2D-15, r^2= 6.0D-01
   Bfn.  Coefficient  Atom+Function         Bfn.  Coefficient  Atom+Function  
  ----- ------------  ---------------      ----- ------------  ---------------
    14      1.977895  1 Xe py                15      1.957280  1 Xe pz         
    51     -1.917365  1 Xe fxxy              56     -1.917365  1 Xe fyyy       
    58     -1.917365  1 Xe fyzz              52     -1.897382  1 Xe fxxz       
    57     -1.897382  1 Xe fyyz              59     -1.897382  1 Xe fzzz       
    11      1.828908  1 Xe py                12      1.809846  1 Xe pz         

 Vector   52  Occ=0.000000D+00  E= 9.695675D+00
              MO Center= -3.0D-14,  6.1D-15,  1.4D-15, r^2= 6.0D-01
   Bfn.  Coefficient  Atom+Function         Bfn.  Coefficient  Atom+Function  
  ----- ------------  ---------------      ----- ------------  ---------------
    13      2.766981  1 Xe px                50     -2.682303  1 Xe fxxx       
    53     -2.682303  1 Xe fxyy              55     -2.682303  1 Xe fxzz       
    10      2.558556  1 Xe px                40     -2.402893  1 Xe fxxx       
    43     -2.402893  1 Xe fxyy              45     -2.402893  1 Xe fxzz       
    16      2.321792  1 Xe px                 7      0.578144  1 Xe px         

 Vector   53  Occ=0.000000D+00  E= 9.813428D+00
              MO Center=  2.8D-14, -9.9D-15, -1.4D-14, r^2= 7.5D-01
   Bfn.  Coefficient  Atom+Function         Bfn.  Coefficient  Atom+Function  
  ----- ------------  ---------------      ----- ------------  ---------------
     5     54.536076  1 Xe s                  4    -49.567185  1 Xe s          
     6    -13.725916  1 Xe s                 28    -13.431869  1 Xe dxx        
    31    -13.431869  1 Xe dyy               33    -13.431869  1 Xe dzz        
     3     12.983375  1 Xe s                 22      6.518573  1 Xe dxx        
    25      6.518573  1 Xe dyy               27      6.518573  1 Xe dzz        

 Vector   54  Occ=0.000000D+00  E= 2.733265D+01
              MO Center=  2.6D-16, -9.5D-17,  2.4D-17, r^2= 3.3D-01
   Bfn.  Coefficient  Atom+Function         Bfn.  Coefficient  Atom+Function  
  ----- ------------  ---------------      ----- ------------  ---------------
     4     85.230296  1 Xe s                  5     39.637825  1 Xe s          
    22    -39.771515  1 Xe dxx               25    -39.771515  1 Xe dyy        
    27    -39.771515  1 Xe dzz                2    -36.008794  1 Xe s          
     6    -27.278039  1 Xe s                  1     10.970202  1 Xe s          
    34      5.937224  1 Xe dxx               37      5.937224  1 Xe dyy        

 Vector   55  Occ=0.000000D+00  E= 4.623746D+01
              MO Center= -1.2D-16, -5.0D-16,  3.4D-16, r^2= 9.6D-02
   Bfn.  Coefficient  Atom+Function         Bfn.  Coefficient  Atom+Function  
  ----- ------------  ---------------      ----- ------------  ---------------
    11      2.482459  1 Xe py                12     -1.690825  1 Xe pz         
     8      1.621910  1 Xe py                51     -1.400811  1 Xe fxxy       
    56     -1.400811  1 Xe fyyy              58     -1.400811  1 Xe fyzz       
     9     -1.104697  1 Xe pz                52      0.954105  1 Xe fxxz       
    57      0.954105  1 Xe fyyz              59      0.954105  1 Xe fzzz       

 Vector   56  Occ=0.000000D+00  E= 4.623746D+01
              MO Center= -1.1D-16, -6.1D-17, -1.3D-16, r^2= 9.6D-02
   Bfn.  Coefficient  Atom+Function         Bfn.  Coefficient  Atom+Function  
  ----- ------------  ---------------      ----- ------------  ---------------
    12      2.200478  1 Xe pz                10      1.858690  1 Xe px         
     9      1.437678  1 Xe pz                52     -1.241693  1 Xe fxxz       
    57     -1.241693  1 Xe fyyz              59     -1.241693  1 Xe fzzz       
     7      1.214371  1 Xe px                11      1.044981  1 Xe py         
    50     -1.048828  1 Xe fxxx              53     -1.048828  1 Xe fxyy       

 Vector   57  Occ=0.000000D+00  E= 4.623746D+01
              MO Center=  4.2D-17, -2.6D-17, -2.4D-17, r^2= 9.6D-02
   Bfn.  Coefficient  Atom+Function         Bfn.  Coefficient  Atom+Function  
  ----- ------------  ---------------      ----- ------------  ---------------
    10      2.359399  1 Xe px                 7      1.541509  1 Xe px         
    11     -1.460900  1 Xe py                50     -1.331370  1 Xe fxxx       
    53     -1.331370  1 Xe fxyy              55     -1.331370  1 Xe fxzz       
    12     -1.299163  1 Xe pz                 8     -0.954476  1 Xe py         
     9     -0.848805  1 Xe pz                51      0.824362  1 Xe fxxy       

 Vector   58  Occ=0.000000D+00  E= 7.641494D+01
              MO Center=  6.7D-17,  8.1D-17,  3.2D-18, r^2= 1.3D-01
   Bfn.  Coefficient  Atom+Function         Bfn.  Coefficient  Atom+Function  
  ----- ------------  ---------------      ----- ------------  ---------------
     5     75.791924  1 Xe s                  4     61.228332  1 Xe s          
     2    -47.627878  1 Xe s                  6    -39.912979  1 Xe s          
    22    -39.572520  1 Xe dxx               25    -39.572520  1 Xe dyy        
    27    -39.572520  1 Xe dzz                1     18.021566  1 Xe s          
     3     15.131168  1 Xe s                 28    -11.850394  1 Xe dxx        

 Vector   59  Occ=0.000000D+00  E= 1.158451D+02
              MO Center=  4.2D-18, -1.9D-17,  5.5D-18, r^2= 8.0D-02
   Bfn.  Coefficient  Atom+Function         Bfn.  Coefficient  Atom+Function  
  ----- ------------  ---------------      ----- ------------  ---------------
     4     41.776934  1 Xe s                  5     24.522844  1 Xe s          
    22    -20.690612  1 Xe dxx               25    -20.690612  1 Xe dyy        
    27    -20.690612  1 Xe dzz                2    -18.947579  1 Xe s          
     6    -15.855147  1 Xe s                  1      4.463787  1 Xe s          
    34      3.436569  1 Xe dxx               37      3.436569  1 Xe dyy        


 Parallel integral file used       8 records with       0 large values


 Task  times  cpu:        2.7s     wall:        2.5s


                                NWChem Input Module
                                -------------------


 Summary of allocated global arrays
-----------------------------------
  No active global arrays


MA_summarize_allocated_blocks: starting scan ...
MA_summarize_allocated_blocks: scan completed: 0 heap blocks, 0 stack blocks
MA usage statistics:

	allocation statistics:
					      heap	     stack
					      ----	     -----
	current number of blocks	         0	         0
	maximum number of blocks	        37	        53
	current total bytes		         0	         0
	maximum total bytes		   8778984	  20263608
	maximum total K-bytes		      8779	     20264
	maximum total M-bytes		         9	        21


                                     CITATION
                                     --------
                Please cite the following reference when publishing
                           results obtained with NWChem:

          E. Apra, E. J. Bylaska, W. A. de Jong, N. Govind, K. Kowalski,
       T. P. Straatsma, M. Valiev, H. J. J. van Dam, Y. Alexeev, J. Anchell,
       V. Anisimov, F. W. Aquino, R. Atta-Fynn, J. Autschbach, N. P. Bauman,
     J. C. Becca, D. E. Bernholdt, K. Bhaskaran-Nair, S. Bogatko, P. Borowski,
         J. Boschen, J. Brabec, A. Bruner, E. Cauet, Y. Chen, G. N. Chuev,
      C. J. Cramer, J. Daily, M. J. O. Deegan, T. H. Dunning Jr., M. Dupuis,
   K. G. Dyall, G. I. Fann, S. A. Fischer, A. Fonari, H. Fruchtl, L. Gagliardi,
      J. Garza, N. Gawande, S. Ghosh, K. Glaesemann, A. W. Gotz, J. Hammond,
       V. Helms, E. D. Hermes, K. Hirao, S. Hirata, M. Jacquelin, L. Jensen,
   B. G. Johnson, H. Jonsson, R. A. Kendall, M. Klemm, R. Kobayashi, V. Konkov,
      S. Krishnamoorthy, M. Krishnan, Z. Lin, R. D. Lins, R. J. Littlefield,
      A. J. Logsdail, K. Lopata, W. Ma, A. V. Marenich, J. Martin del Campo,
   D. Mejia-Rodriguez, J. E. Moore, J. M. Mullin, T. Nakajima, D. R. Nascimento,
    J. A. Nichols, P. J. Nichols, J. Nieplocha, A. Otero-de-la-Roza, B. Palmer,
    A. Panyala, T. Pirojsirikul, B. Peng, R. Peverati, J. Pittner, L. Pollack,
   R. M. Richard, P. Sadayappan, G. C. Schatz, W. A. Shelton, D. W. Silverstein,
   D. M. A. Smith, T. A. Soares, D. Song, M. Swart, H. L. Taylor, G. S. Thomas,
            V. Tipparaju, D. G. Truhlar, K. Tsemekhman, T. Van Voorhis,
      A. Vazquez-Mayagoitia, P. Verma, O. Villa, A. Vishnu, K. D. Vogiatzis,
        D. Wang, J. H. Weare, M. J. Williamson, T. L. Windus, K. Wolinski,
        A. T. Wong, Q. Wu, C. Yang, Q. Yu, M. Zacharias, Z. Zhang, Y. Zhao,
                                and R. J. Harrison
                        "NWChem: Past, present, and future
                         J. Chem. Phys. 152, 184102 (2020)
                               doi:10.1063/5.0004997

                                      AUTHORS
                                      -------
  E. Apra, E. J. Bylaska, N. Govind, K. Kowalski, M. Valiev, D. Mejia-Rodriguez,
       A. Kunitsa, N. P. Bauman, A. Panyala, W. A. de Jong, T. P. Straatsma,
   H. J. J. van Dam, D. Wang, T. L. Windus, J. Hammond, J. Autschbach, A. Woods,
    K. Bhaskaran-Nair, J. Brabec, K. Lopata, S. A. Fischer, S. Krishnamoorthy,
     M. Jacquelin, W. Ma, M. Klemm, O. Villa, Y. Chen, V. Anisimov, F. Aquino,
     S. Hirata, M. T. Hackler, E. Hermes, L. Jensen, J. E. Moore, J. C. Becca,
      V. Konjkov, T. Risthaus, M. Malagoli, A. Marenich, A. Otero-de-la-Roza,
        J. Mullin, P. Nichols, R. Peverati, J. Pittner, Y. Zhao, P.-D. Fan,
        A. Fonari, M. J. Williamson, R. J. Harrison, J. R. Rehr, M. Dupuis,
     D. Silverstein, D. M. A. Smith, J. Nieplocha, V. Tipparaju, M. Krishnan,
     B. E. Van Kuiken, A. Vazquez-Mayagoitia, M. Swart, Q. Wu, T. Van Voorhis,
     A. A. Auer, M. Nooijen, L. D. Crosby, E. Brown, G. Cisneros, G. I. Fann,
   H. Fruchtl, J. Garza, K. Hirao, R. A. Kendall, J. A. Nichols, K. Tsemekhman,
    K. Wolinski, J. Anchell, D. E. Bernholdt, P. Borowski, T. Clark, D. Clerc,
   H. Dachsel, M. J. O. Deegan, K. Dyall, D. Elwood, E. Glendening, M. Gutowski,
   A. C. Hess, J. Jaffe, B. G. Johnson, J. Ju, R. Kobayashi, R. Kutteh, Z. Lin,
   R. Littlefield, X. Long, B. Meng, T. Nakajima, S. Niu, L. Pollack, M. Rosing,
   K. Glaesemann, G. Sandrone, M. Stave, H. Taylor, G. Thomas, J. H. van Lenthe,
                               A. T. Wong, Z. Zhang.

 Total times  cpu:        2.7s     wall:        2.5s
