 *******************************************************************************
 **                                                                           **
 **                              MOPAC v23.2.3                                **
 **                                                                           **
 *******************************************************************************
 **          Digital Object Identifier (DOI): 10.5281/zenodo.6511958          **
 **    Visit the DOI location for information on how to cite this program.    **
 *******************************************************************************

                              PM7 CALCULATION RESULTS

 *******************************************************************************
 *  CALCULATION DONE: (MAX THREADS = 20)             Thu Feb 19 14:26:05 2026  *
 *  PM7        - The PM7 Hamiltonian to be used
 *  SINGLET    - SPIN STATE DEFINED AS A SINGLET
 *  RHF        - RESTRICTED HARTREE-FOCK CALCULATION
 *
 *
 *
 *                 CHARGE ON SYSTEM = 0
 *
 *
 *
 *  PRECISE    - TIGHTER CRITERIA TO BE USED
 *  FORCE      - FORCE CALCULATION SPECIFIED
 *  T=         - A TIME OF 172800.0 SECONDS REQUESTED
 *  DUMP=N     - RESTART FILE WRITTEN EVERY 7200.0 SECONDS REQUESTED
 *  AUX        - OUTPUT AUXILIARY INFORMATION
 *  LARGE      - EXPANDED OUTPUT TO BE PRINTED
 *******************************************************************************
 AUX LARGE CHARGE=0 SINGLET FORCE PM7 PRECISE RHF
 F6S | Equilibrium Geometry | PM7

   ATOM   CHEMICAL          X               Y               Z
  NUMBER   SYMBOL      (ANGSTROMS)     (ANGSTROMS)     (ANGSTROMS)
 
     1       S         -2.69412800  *  -0.27316600  *   0.07679500  *
     2       F         -3.28059300  *  -1.39262500  *   0.98296200  *
     3       F         -4.13382900  *   0.15505900  *  -0.32581400  *
     4       F         -1.25440700  *  -0.70128800  *   0.47946200  *
     5       F         -2.73444800  *   0.71769100  *   1.27462900  *
     6       F         -2.10781100  *   0.84624000  *  -0.82948600  *
     7       F         -2.65377800  *  -1.26402700  *  -1.12104300  *
 


          CARTESIAN COORDINATES 

    NO.       ATOM           X           Y           Z

     1         S         -2.6941     -0.2732      0.0768
     2         F         -3.2806     -1.3926      0.9830
     3         F         -4.1338      0.1551     -0.3258
     4         F         -1.2544     -0.7013      0.4795
     5         F         -2.7344      0.7177      1.2746
     6         F         -2.1078      0.8462     -0.8295
     7         F         -2.6538     -1.2640     -1.1210

 General Reference for PM7:
 "Optimization of Parameters for Semiempirical Methods VI: More Modifications to the 
 NDDO Approximations and Re-optimization of Parameters", J. J. P. Stewart, J. Mol. Mod., 1:32, 19 (2013)
 https://link.springer.com/article/10.1007/s00894-012-1667-x

           Empirical Formula: S F6  =     7 atoms



      MOLECULAR POINT GROUP   :   Oh  


 SINGLET STATE CALCULATION


      RHF CALCULATION, NO. OF DOUBLY OCCUPIED LEVELS = 24



          HEAT OF FORMATION =    -291.378315 KCALS/MOLE


          CARTESIAN COORDINATE DERIVATIVES

   NUMBER  ATOM         X            Y            Z

     1       S     -0.008761    -0.008484    -0.003976
     2       F      0.010131     0.011885     0.007893
     3       F     -0.001048    -0.007748    -0.007420
     4       F     -0.006951    -0.003739    -0.002361
     5       F     -0.005177     0.003581    -0.000094
     6       F      0.011368     0.005981     0.002279
     7       F      0.000436    -0.001479     0.003676
 
 DIPOLE           X         Y         Z       TOTAL
 POINT-CHG.     0.000    -0.000    -0.000     0.000
 HYBRID         0.000    -0.000     0.000     0.000
 SUM            0.000    -0.000    -0.000     0.000


          GRADIENT NORM =   0.02967


          TIME FOR SCF CALCULATION =    0.07

          TIME FOR DERIVATIVES     =    0.00

          MOLECULAR WEIGHT =  146.05



          ROTATIONAL CONSTANTS IN CM(-1)

          A =    0.09173317   B =    0.09173295   C =    0.09173080



           PRINCIPAL MOMENTS OF INERTIA IN UNITS OF 10**(-40)*GRAM-CM**2

          A =      305.1541   B =      305.1548   C =      305.1620


          ORIENTATION OF MOLECULE IN FORCE CALCULATION

    NO.       ATOM         X         Y         Z

     1          S       0.0000   -0.0000   -0.0000
     2          F       1.5551   -0.0000   -0.0000
     3          F       0.0001    1.5550   -0.0000
     4          F      -0.0001   -1.5551   -0.0001
     5          F      -0.0001    0.0000   -1.5551
     6          F      -1.5550    0.0001    0.0001
     7          F       0.0001   -0.0001    1.5551


    FIRST DERIVATIVES WILL BE USED IN THE CALCULATION OF SECOND DERIVATIVES

          ESTIMATED TIME TO COMPLETE CALCULATION =        5.58 SECONDS

    FOR POINT-GROUP Oh   THERE ARE  48 UNIQUE SYMMETRY FUNCTIONS.

 STEP:   1 TIME =     0.01 SECS, INTEGRAL =      0.01 TIME LEFT: 172799.92
 STEP:   2 TIME =     0.02 SECS, INTEGRAL =      0.03 TIME LEFT: 172799.91
 STEP:   3 TIME =     0.01 SECS, INTEGRAL =      0.04 TIME LEFT: 172799.89
 STEP:   4 TIME =     0.02 SECS, INTEGRAL =      0.05 TIME LEFT: 172799.88
 STEP:   5 TIME =     0.02 SECS, INTEGRAL =      0.07 TIME LEFT: 172799.86
 STEP:   6 TIME =     0.02 SECS, INTEGRAL =      0.09 TIME LEFT: 172799.85
 STEP:   7                       INTEGRAL =      0.09 TIME LEFT: 172799.85
 STEP:   8                       INTEGRAL =      0.09 TIME LEFT: 172799.85
 STEP:   9                       INTEGRAL =      0.09 TIME LEFT: 172799.85
 STEP:  10                       INTEGRAL =      0.09 TIME LEFT: 172799.85
 STEP:  11                       INTEGRAL =      0.09 TIME LEFT: 172799.85
 STEP:  12                       INTEGRAL =      0.09 TIME LEFT: 172799.85
 STEP:  13                       INTEGRAL =      0.09 TIME LEFT: 172799.85
 STEP:  14                       INTEGRAL =      0.09 TIME LEFT: 172799.85
 STEP:  15                       INTEGRAL =      0.09 TIME LEFT: 172799.85
 STEP:  16                       INTEGRAL =      0.09 TIME LEFT: 172799.85
 STEP:  17                       INTEGRAL =      0.09 TIME LEFT: 172799.85
 STEP:  18                       INTEGRAL =      0.09 TIME LEFT: 172799.85
 STEP:  19                       INTEGRAL =      0.09 TIME LEFT: 172799.85
 STEP:  20                       INTEGRAL =      0.09 TIME LEFT: 172799.85
 STEP:  21                       INTEGRAL =      0.09 TIME LEFT: 172799.85

(To convert to Hartree/Bohr^2, multiply by (10^(-21) x N x a0^2)/(4.184 x 627.51) =  0.0642)


           FORCE MATRIX IN MILLIDYNES/ANGSTROM


                  S  1       F  2       F  3       F  4       F  5       F  6
 ------------------------------------------------------------------------------
     S    1  16.541815
     F    2   3.644288   4.615214
     F    3   3.644004   0.608180   4.615214
     F    4   3.643930   0.607830   0.064312   4.615214
     F    5   3.643900   0.607888   0.608160   0.607888   4.615214
     F    6   3.644131   0.064312   0.607830   0.608180   0.607830   4.615214
     F    7   3.643813   0.608160   0.607888   0.608160   0.064312   0.607888


                  F  7
 ------------------
     F    7   4.615214


          HEAT OF FORMATION =    -291.378315 KCALS/MOLE


          TRIVIAL VIBRATIONS, SHOULD BE ZERO

   0.0012=TX   0.0009=TY   0.0010=TZ  -0.0008=RX  -0.0008=RY  -0.0008=RZ


      MOLECULAR POINT GROUP   :   Oh  


           EIGENVECTORS  


   Root No.       1         2         3         4         5         6         7         8

                 1 T2u     1 T2u     1 T2u     1 T2g     1 T2g     1 T2g     1 T1u     1 T1u 

                   0.6       0.6       0.6       1.5       1.5       1.5       2.4       2.4
  
           1   -0.0000   -0.0000   -0.0000   -0.0000    0.0000   -0.0000    0.3199    0.1214
           2   -0.0000   -0.0000   -0.0000   -0.0000   -0.0001   -0.0000   -0.1472    0.1511
           3   -0.0000   -0.0001    0.0000   -0.0001    0.0001   -0.0001   -0.0555    0.2991
           4   -0.0000   -0.0000   -0.0000   -0.0001   -0.0000   -0.0000    0.4248    0.1612
           5   -0.3549   -0.1213   -0.3306   -0.1971   -0.4509   -0.0879    0.1345   -0.1382
           6   -0.0830   -0.4273    0.2459   -0.4072    0.2158   -0.1937    0.0507   -0.2736
           7    0.3423   -0.2294   -0.2832   -0.1971   -0.4510   -0.0879   -0.2924   -0.1110
           8   -0.0000   -0.0000   -0.0000   -0.0001   -0.0001    0.0000   -0.1954    0.2007
           9    0.0830    0.4274   -0.2459    0.2128   -0.0049   -0.4524    0.0507   -0.2734
          10    0.3423   -0.2294   -0.2832    0.1972    0.4510    0.0879   -0.2924   -0.1109
          11   -0.0000   -0.0000    0.0000   -0.0000   -0.0001   -0.0001   -0.1954    0.2007
          12    0.0830    0.4274   -0.2459   -0.2126    0.0048    0.4525    0.0507   -0.2734
          13   -0.3423    0.2294    0.2832    0.4073   -0.2158    0.1938   -0.2924   -0.1108
          14    0.3549    0.1214    0.3306   -0.2127    0.0049    0.4525    0.1345   -0.1381
          15    0.0000   -0.0000    0.0000   -0.0001    0.0000   -0.0001   -0.0737    0.3974
          16   -0.0000   -0.0000   -0.0000   -0.0000    0.0001    0.0000    0.4249    0.1612
          17   -0.3549   -0.1214   -0.3306    0.1972    0.4511    0.0879    0.1344   -0.1381
          18   -0.0830   -0.4273    0.2459    0.4073   -0.2159    0.1938    0.0507   -0.2734
          19   -0.3423    0.2294    0.2832   -0.4073    0.2158   -0.1938   -0.2924   -0.1111
          20    0.3549    0.1214    0.3307    0.2127   -0.0048   -0.4524    0.1345   -0.1381
          21    0.0000   -0.0000    0.0000   -0.0001    0.0001   -0.0001   -0.0737    0.3973


   Root No.       9        10        11        12        13        14        15

                 1 T1u     1 Eg      1 Eg      1 A1g     2 T1u     2 T1u     2 T1u 

                   2.4       3.8       3.8       5.8      12.7      12.7      12.7
  
           1    0.1000    0.0000   -0.0000   -0.0000   -0.3025    0.5899    0.5391
           2    0.2874    0.0000   -0.0000   -0.0000    0.3045   -0.4479    0.6609
           3   -0.1857    0.0000    0.0000   -0.0000    0.7389    0.4260   -0.0516
           4    0.1328    0.2346    0.5275   -0.4083    0.1291   -0.2518   -0.2301
           5   -0.2628    0.0000   -0.0000    0.0000   -0.0112    0.0164   -0.0242
           6    0.1698   -0.0000   -0.0000    0.0000   -0.0271   -0.0156    0.0019
           7   -0.0915   -0.0000   -0.0000   -0.0000    0.0111   -0.0216   -0.0197
           8    0.3817   -0.5742   -0.0606   -0.4083   -0.1299    0.1912   -0.2821
           9    0.1698   -0.0000   -0.0000   -0.0000   -0.0270   -0.0156    0.0019
          10   -0.0913    0.0000    0.0000    0.0000    0.0111   -0.0216   -0.0197
          11    0.3817    0.5742    0.0606    0.4083   -0.1300    0.1911   -0.2821
          12    0.1698    0.0000    0.0000    0.0000   -0.0270   -0.0156    0.0019
          13   -0.0914   -0.0000    0.0000    0.0000    0.0111   -0.0216   -0.0197
          14   -0.2627    0.0000    0.0000   -0.0000   -0.0111    0.0164   -0.0242
          15   -0.2467   -0.3396    0.4669    0.4082   -0.3153   -0.1819    0.0220
          16    0.1328   -0.2346   -0.5275    0.4082    0.1291   -0.2518   -0.2301
          17   -0.2626   -0.0000    0.0001   -0.0000   -0.0112    0.0164   -0.0242
          18    0.1697    0.0000    0.0000   -0.0000   -0.0270   -0.0156    0.0019
          19   -0.0913   -0.0000   -0.0000   -0.0000    0.0110   -0.0216   -0.0197
          20   -0.2626   -0.0000    0.0000    0.0000   -0.0111    0.0164   -0.0242
          21   -0.2467    0.3396   -0.4670   -0.4083   -0.3153   -0.1819    0.0220


          FORCE CONSTANTS IN MILLIDYNES/ANGSTROM (= 10**5 DYNES/CM)

   0.60798   0.60808   0.60829   1.51628   1.51638   1.51643   2.41896   2.41931
   2.41946   3.84073   3.84085   5.80691  12.66047  12.66083  12.66103


           ASSOCIATED EIGENVECTORS




    ROOT NO.    1           2           3           4           5           6

             0.60798     0.60808     0.60829     1.51628     1.51638     1.51643
  
         1  -0.00001    -0.00000    -0.00001    -0.00004     0.00001    -0.00002
         2  -0.00003    -0.00003    -0.00004    -0.00005    -0.00009    -0.00001
         3  -0.00002    -0.00005     0.00003    -0.00011     0.00006    -0.00006
         4  -0.00003    -0.00002    -0.00002    -0.00009    -0.00003    -0.00005
         5  -0.35486    -0.12135    -0.33065    -0.19713    -0.45094    -0.08787
         6  -0.08296    -0.42732     0.24588    -0.40723     0.21578    -0.19373
         7   0.34232    -0.22939    -0.28317    -0.19713    -0.45102    -0.08788
         8  -0.00002    -0.00003    -0.00000    -0.00006    -0.00008     0.00004
         9   0.08297     0.42740    -0.24595     0.21281    -0.00486    -0.45241
        10   0.34234    -0.22941    -0.28315     0.19724     0.45096     0.08793
        11  -0.00002    -0.00003     0.00001    -0.00002    -0.00006    -0.00006
        12   0.08296     0.42737    -0.24594    -0.21262     0.00477     0.45253
        13  -0.34233     0.22944     0.28323     0.40727    -0.21583     0.19379
        14   0.35488     0.12140     0.33064    -0.21271     0.00490     0.45248
        15   0.00002    -0.00002     0.00000    -0.00013     0.00004    -0.00005
        16  -0.00002    -0.00003    -0.00003    -0.00000     0.00006     0.00001
        17  -0.35485    -0.12137    -0.33064     0.19722     0.45106     0.08787
        18  -0.08299    -0.42734     0.24595     0.40734    -0.21586     0.19379
        19  -0.34228     0.22942     0.28315    -0.40725     0.21584    -0.19378
        20   0.35491     0.12140     0.33068     0.21274    -0.00478    -0.45245
        21   0.00002    -0.00003     0.00003    -0.00006     0.00007    -0.00007




    ROOT NO.    7           8           9          10          11          12

             2.41896     2.41931     2.41946     3.84073     3.84085     5.80691
  
         1   0.31989     0.12144     0.09999     0.00002    -0.00001    -0.00000
         2  -0.14716     0.15107     0.28736     0.00000    -0.00000    -0.00001
         3  -0.05552     0.29914    -0.18570     0.00001     0.00001    -0.00001
         4   0.42482     0.16123     0.13277     0.23464     0.52755    -0.40826
         5   0.13453    -0.13817    -0.26280     0.00001    -0.00004     0.00004
         6   0.05073    -0.27364     0.16982    -0.00002    -0.00001     0.00003
         7  -0.29239    -0.11104    -0.09147    -0.00003    -0.00003    -0.00000
         8  -0.19542     0.20070     0.38168    -0.57415    -0.06061    -0.40825
         9   0.05073    -0.27340     0.16976    -0.00004    -0.00001    -0.00002
        10  -0.29243    -0.11094    -0.09128     0.00001     0.00003     0.00001
        11  -0.19544     0.20070     0.38165     0.57416     0.06056     0.40827
        12   0.05072    -0.27339     0.16977     0.00004     0.00001     0.00003
        13  -0.29236    -0.11081    -0.09143    -0.00003     0.00002     0.00004
        14   0.13453    -0.13809    -0.26266     0.00003     0.00000    -0.00001
        15  -0.07369     0.39735    -0.24665    -0.33957     0.46693     0.40824
        16   0.42490     0.16123     0.13275    -0.23460    -0.52753     0.40822
        17   0.13444    -0.13810    -0.26264    -0.00001     0.00006    -0.00005
        18   0.05075    -0.27336     0.16969     0.00001     0.00003    -0.00001
        19  -0.29244    -0.11111    -0.09133    -0.00001    -0.00003    -0.00000
        20   0.13452    -0.13811    -0.26260    -0.00004     0.00003     0.00001
        21  -0.07371     0.39730    -0.24668     0.33955    -0.46696    -0.40825




    ROOT NO.   13          14          15

            12.66047    12.66083    12.66103
  
         1  -0.30247     0.58989     0.53908
         2   0.30445    -0.44788     0.66091
         3   0.73886     0.42604    -0.05164
         4   0.12910    -0.25178    -0.23010
         5  -0.01116     0.01641    -0.02421
         6  -0.02707    -0.01560     0.00189
         7   0.01105    -0.02156    -0.01974
         8  -0.12995     0.19115    -0.28210
         9  -0.02702    -0.01557     0.00188
        10   0.01107    -0.02158    -0.01972
        11  -0.12995     0.19113    -0.28210
        12  -0.02703    -0.01557     0.00187
        13   0.01107    -0.02158    -0.01972
        14  -0.01112     0.01639    -0.02417
        15  -0.31535    -0.18186     0.02205
        16   0.12915    -0.25180    -0.23009
        17  -0.01115     0.01641    -0.02416
        18  -0.02704    -0.01557     0.00190
        19   0.01103    -0.02159    -0.01971
        20  -0.01112     0.01639    -0.02417
        21  -0.31534    -0.18186     0.02204

          ZERO POINT ENERGY      11.029 KCAL/MOL


           FREQUENCIES, REDUCED MASSES AND VIBRATIONAL DIPOLES



   I         1         2         3         4         5         6
 FREQ(I)  232.7241  232.7241  232.7241  367.8321  367.8321  367.8321

 MASS(I)   4.70637   4.71445   4.73512   4.74140   4.72120   4.72927

 DIPX(I)   0.00000   0.00000   0.00000   0.00000   0.00000   0.00000
 DIPY(I)  -0.00000  -0.00000   0.00000   0.00000  -0.00000   0.00000
 DIPZ(I)  -0.00000   0.00000  -0.00000  -0.00000   0.00000  -0.00000

 DIPT(I)   0.00000   0.00000   0.00000   0.00000   0.00000   0.00000


   I         7         8         9        10        11        12
 FREQ(I)  445.5993  445.5993  445.5993  585.7446  585.7446  720.2393

 MASS(I)   3.33726   3.32800   3.33176   4.74960   4.74960   3.16640

 DIPX(I)   3.60539  -0.66709  -0.02758  -0.00000   0.00000  -0.00000
 DIPY(I)   0.64788   3.45903   1.02954   0.00000   0.00000  -0.00000
 DIPZ(I)  -0.16129  -1.01720   3.51908  -0.00000   0.00000   0.00000

 DIPT(I)   3.66669   3.66669   3.66669   0.00000   0.00000   0.00000


   I        13        14        15        16        17        18
 FREQ(I)  894.9753  894.9753  894.9753    0.0528    0.0546    0.0560

 MASS(I)  12.32347  12.31772  12.50232   3.47369   3.47369   3.47369

 DIPX(I)   8.44914  -2.13619  -0.17331  -0.00091   0.00000  -0.00000
 DIPY(I)   2.14192   8.44085   0.38157   0.00000  -0.00091   0.00000
 DIPZ(I)   0.07432  -0.41244   8.70665  -0.00000   0.00000  -0.00091

 DIPT(I)   8.71673   8.71673   8.71673   0.00091   0.00091   0.00091


   I        19        20        21
 FREQ(I)  -15.5232  -15.5232  -15.5233

 MASS(I)   3.61323   3.45866   3.18868

 DIPX(I)  -0.00007  -0.00006   0.00002
 DIPY(I)  -0.00001  -0.00002   0.00002
 DIPZ(I)   0.00003  -0.00004   0.00002

 DIPT(I)   0.00007   0.00007   0.00004


           NORMAL COORDINATE ANALYSIS (Total motion = 1 Angstrom)


   Root No.       1         2         3         4         5         6         7         8

                 1 T2u     1 T2u     1 T2u     1 T2g     1 T2g     1 T2g     1 T1u     1 T1u 

                 232.7     232.7     232.7     367.8     367.8     367.8     445.6     445.6
  
           1    0.0000    0.0000    0.0000    0.0000    0.0000    0.0000    0.1332   -0.0246
           2   -0.0000   -0.0000    0.0000    0.0000   -0.0000    0.0000    0.0239    0.1278
           3   -0.0000    0.0000   -0.0000   -0.0000    0.0000   -0.0000   -0.0060   -0.0376
           4   -0.0000    0.0000   -0.0000   -0.0000    0.0000    0.0000    0.1563   -0.0289
           5    0.0120    0.0057   -0.2431   -0.2448    0.0100    0.0004   -0.0241   -0.1288
           6   -0.2380    0.0199   -0.0117    0.0011    0.0158    0.2418    0.0060    0.0379
           7   -0.0195   -0.2392   -0.0068   -0.2448    0.0100    0.0004   -0.1343    0.0249
           8   -0.0000    0.0000   -0.0000    0.0000    0.0000   -0.0000    0.0281    0.1498
           9    0.2380   -0.0199    0.0116   -0.0101   -0.2403    0.0159    0.0060    0.0379
          10   -0.0195   -0.2392   -0.0068    0.2448   -0.0100   -0.0004   -0.1343    0.0249
          11   -0.0000    0.0000   -0.0000   -0.0000   -0.0000    0.0000    0.0281    0.1498
          12    0.2380   -0.0199    0.0116    0.0101    0.2403   -0.0159    0.0060    0.0379
          13    0.0195    0.2392    0.0068   -0.0011   -0.0158   -0.2418   -0.1343    0.0248
          14   -0.0119   -0.0057    0.2431    0.0101    0.2403   -0.0159   -0.0241   -0.1288
          15   -0.0000   -0.0000    0.0000    0.0000    0.0000    0.0000   -0.0070   -0.0441
          16   -0.0000    0.0000   -0.0000    0.0000   -0.0000   -0.0000    0.1563   -0.0289
          17    0.0120    0.0057   -0.2431    0.2448   -0.0100   -0.0004   -0.0242   -0.1288
          18   -0.2380    0.0199   -0.0117   -0.0011   -0.0158   -0.2418    0.0060    0.0379
          19    0.0195    0.2392    0.0068    0.0011    0.0158    0.2418   -0.1343    0.0248
          20   -0.0119   -0.0057    0.2431   -0.0101   -0.2403    0.0159   -0.0241   -0.1288
          21   -0.0000   -0.0000    0.0000   -0.0000   -0.0000   -0.0000   -0.0070   -0.0441


   Root No.       9        10        11        12        13        14        15

                 1 T1u     1 Eg      1 Eg      1 A1g     2 T1u     2 T1u     2 T1u 

                 445.6     585.7     585.7     720.2     895.0     895.0     895.0
  
           1   -0.0010   -0.0000    0.0000   -0.0000    0.3273   -0.0820   -0.0073
           2    0.0380    0.0000    0.0000   -0.0000    0.0830    0.3238    0.0161
           3    0.1300   -0.0000    0.0000    0.0000    0.0029   -0.0158    0.3671
           4   -0.0012    0.2423   -0.1309    0.1667   -0.2543    0.0637    0.0057
           5   -0.0383   -0.0000    0.0000   -0.0000   -0.0028   -0.0108   -0.0005
           6   -0.1311   -0.0000    0.0000   -0.0000   -0.0001    0.0005   -0.0123
           7    0.0010   -0.0000   -0.0000    0.0000   -0.0109    0.0027    0.0002
           8    0.0446   -0.2500   -0.1191    0.1667   -0.0645   -0.2516   -0.0125
           9   -0.1311   -0.0000   -0.0000    0.0000   -0.0001    0.0005   -0.0123
          10    0.0010    0.0000    0.0000   -0.0000   -0.0110    0.0027    0.0002
          11    0.0446    0.2500    0.1191   -0.1667   -0.0645   -0.2516   -0.0125
          12   -0.1311    0.0000    0.0000   -0.0000   -0.0001    0.0005   -0.0123
          13    0.0010    0.0000   -0.0000   -0.0000   -0.0110    0.0027    0.0002
          14   -0.0384    0.0000    0.0000    0.0000   -0.0028   -0.0108   -0.0005
          15    0.1525   -0.0077   -0.2500   -0.1667   -0.0022    0.0123   -0.2852
          16   -0.0012   -0.2423    0.1309   -0.1667   -0.2543    0.0637    0.0057
          17   -0.0383    0.0000   -0.0000    0.0000   -0.0028   -0.0108   -0.0005
          18   -0.1311    0.0000   -0.0000    0.0000   -0.0001    0.0005   -0.0123
          19    0.0010   -0.0000    0.0000    0.0000   -0.0109    0.0027    0.0002
          20   -0.0384   -0.0000   -0.0000   -0.0000   -0.0028   -0.0108   -0.0005
          21    0.1525    0.0077    0.2500    0.1667   -0.0022    0.0123   -0.2852


           MASS-WEIGHTED COORDINATE ANALYSIS (NORMAL COORDINATES)


   Root No.       1         2         3         4         5         6         7         8

                 1 T2u     1 T2u     1 T2u     1 T2g     1 T2g     1 T2g     1 T1u     1 T1u 

                 232.7     232.7     232.7     367.8     367.8     367.8     445.6     445.6
  
           1    0.0000    0.0000    0.0000    0.0000    0.0000    0.0000    0.4382   -0.0795
           2   -0.0000   -0.0000    0.0000    0.0000   -0.0000    0.0000    0.0774    0.4204
           3   -0.0000    0.0000   -0.0000   -0.0000    0.0000   -0.0000   -0.0188   -0.1237
           4   -0.0000    0.0000   -0.0000   -0.0000    0.0000    0.0000    0.3957   -0.0718
           5    0.0228    0.0217   -0.4990   -0.4996    0.0203   -0.0001   -0.0601   -0.3263
           6   -0.4980    0.0391   -0.0211    0.0011    0.0310    0.4990    0.0146    0.0960
           7   -0.0381   -0.4980   -0.0234   -0.4996    0.0202   -0.0001   -0.3402    0.0618
           8   -0.0000    0.0000   -0.0000    0.0000    0.0000   -0.0000    0.0699    0.3796
           9    0.4980   -0.0391    0.0211   -0.0202   -0.4986    0.0311    0.0146    0.0961
          10   -0.0381   -0.4980   -0.0234    0.4996   -0.0202    0.0001   -0.3401    0.0618
          11   -0.0000    0.0000   -0.0000   -0.0000   -0.0000    0.0000    0.0699    0.3796
          12    0.4980   -0.0391    0.0211    0.0202    0.4986   -0.0311    0.0146    0.0961
          13    0.0381    0.4980    0.0234   -0.0011   -0.0310   -0.4990   -0.3402    0.0617
          14   -0.0228   -0.0217    0.4990    0.0202    0.4986   -0.0310   -0.0601   -0.3263
          15   -0.0000   -0.0000    0.0000    0.0000    0.0000    0.0000   -0.0170   -0.1118
          16   -0.0000    0.0000   -0.0000    0.0000   -0.0000   -0.0000    0.3957   -0.0718
          17    0.0228    0.0217   -0.4990    0.4996   -0.0203    0.0001   -0.0601   -0.3263
          18   -0.4980    0.0391   -0.0211   -0.0011   -0.0310   -0.4990    0.0146    0.0960
          19    0.0381    0.4980    0.0234    0.0011    0.0310    0.4990   -0.3402    0.0617
          20   -0.0228   -0.0217    0.4990   -0.0202   -0.4986    0.0310   -0.0601   -0.3263
          21   -0.0000   -0.0000    0.0000   -0.0000   -0.0000   -0.0000   -0.0170   -0.1118


   Root No.       9        10        11        12        13        14        15

                 1 T1u     1 Eg      1 Eg      1 A1g     2 T1u     2 T1u     2 T1u 

                 445.6     585.7     585.7     720.2     895.0     895.0     895.0
  
           1   -0.0037   -0.0000    0.0000   -0.0000    0.7391   -0.1887   -0.0161
           2    0.1251    0.0000    0.0000   -0.0000    0.1893    0.7383    0.0345
           3    0.4275   -0.0000    0.0000    0.0000    0.0071   -0.0375    0.7620
           4   -0.0034    0.4926   -0.3012    0.4082   -0.4420    0.1129    0.0097
           5   -0.0971   -0.0000    0.0000   -0.0000   -0.0049   -0.0190   -0.0009
           6   -0.3318   -0.0000    0.0000   -0.0000   -0.0002    0.0010   -0.0196
           7    0.0029   -0.0000   -0.0000    0.0000   -0.0190    0.0048    0.0004
           8    0.1130   -0.5071   -0.2760    0.4082   -0.1132   -0.4415   -0.0207
           9   -0.3318   -0.0000   -0.0000    0.0000   -0.0002    0.0009   -0.0196
          10    0.0029    0.0000    0.0000   -0.0000   -0.0190    0.0048    0.0004
          11    0.1130    0.5071    0.2760   -0.4082   -0.1132   -0.4415   -0.0207
          12   -0.3318    0.0000    0.0000   -0.0000   -0.0002    0.0009   -0.0196
          13    0.0029    0.0000   -0.0000   -0.0000   -0.0190    0.0049    0.0004
          14   -0.0971    0.0000    0.0000    0.0000   -0.0049   -0.0190   -0.0009
          15    0.3860   -0.0145   -0.5772   -0.4082   -0.0042    0.0224   -0.4557
          16   -0.0034   -0.4926    0.3012   -0.4082   -0.4420    0.1129    0.0097
          17   -0.0971    0.0000   -0.0000    0.0000   -0.0048   -0.0190   -0.0009
          18   -0.3318    0.0000   -0.0000    0.0000   -0.0002    0.0010   -0.0196
          19    0.0029   -0.0000    0.0000    0.0000   -0.0190    0.0049    0.0004
          20   -0.0972   -0.0000   -0.0000   -0.0000   -0.0049   -0.0190   -0.0009
          21    0.3860    0.0145    0.5772    0.4082   -0.0042    0.0224   -0.4557


          DESCRIPTION OF VIBRATIONS


 VIBRATION          3    1T2u        ATOM PAIR     ENERGY CONTRIBUTION    RADIAL
 FREQUENCY           232.72         S 1 -- F 7         +25.0% ( 57.3%)      0.0%
 TRANSITION DIPOLE   0.0000         S 1 -- F 5         +25.0% ( 57.3%)      0.0%
 TRAVEL (Ang.)       0.2474         S 1 -- F 6         +24.9% ( 57.3%)      0.0%
 REDUCED MASS        4.7308         S 1 -- F 2         +24.9% ( 57.3%)      0.0%
 EFFECTIVE MASS     18.9984
 FORCE CONSTANT      0.1510

 VIBRATION          6    1T2g        ATOM PAIR     ENERGY CONTRIBUTION    RADIAL
 FREQUENCY           367.83         S 1 -- F 5         +25.0% ( 36.3%)      0.0%
 TRANSITION DIPOLE   0.0000         S 1 -- F 7         +25.0% ( 36.3%)      0.0%
 TRAVEL (Ang.)       0.1969         S 1 -- F 2         +24.9% ( 36.2%)      0.0%
 REDUCED MASS        4.7314         S 1 -- F 6         +24.9% ( 36.2%)      0.0%
 EFFECTIVE MASS     18.9984
 FORCE CONSTANT      0.3772

 VIBRATION          9    1T1u        ATOM PAIR     ENERGY CONTRIBUTION    RADIAL
 FREQUENCY           445.60         S 1 -- F 2         +19.0% ( 78.4%)      0.0%
 TRANSITION DIPOLE   3.6667         S 1 -- F 6         +19.0% ( 78.4%)      0.0%
 TRAVEL (Ang.)       0.2131         S 1 -- F 4         +18.4% ( 77.2%)      0.0%
 REDUCED MASS        3.3318         S 1 -- F 3         +18.4% ( 77.2%)      0.0%
 EFFECTIVE MASS     22.1109         S 1 -- F 7         +12.6% ( 64.0%)      3.4%
 FORCE CONSTANT      0.3898         S 1 -- F 5         +12.6% ( 64.0%)      3.4%

 VIBRATION         11    1Eg         ATOM PAIR     ENERGY CONTRIBUTION    RADIAL
 FREQUENCY           585.74         S 1 -- F 5         +33.3% ( 62.3%)    100.0%
 TRANSITION DIPOLE   0.0000         S 1 -- F 7         +33.3% ( 62.3%)    100.0%
 TRAVEL (Ang.)       0.1557         S 1 -- F 2          +9.1% ( 32.5%)    100.0%
 REDUCED MASS        4.7496         S 1 -- F 6          +9.1% ( 32.5%)    100.0%
 EFFECTIVE MASS     18.9984
 FORCE CONSTANT      0.9601

 VIBRATION         12    1A1g        ATOM PAIR     ENERGY CONTRIBUTION    RADIAL
 FREQUENCY           720.24         S 1 -- F 5         +16.7% ( 35.8%)    100.0%
 TRANSITION DIPOLE   0.0000         S 1 -- F 7         +16.7% ( 35.8%)    100.0%
 TRAVEL (Ang.)       0.1720         S 1 -- F 2         +16.7% ( 35.8%)    100.0%
 REDUCED MASS        3.1664         S 1 -- F 3         +16.7% ( 35.8%)    100.0%
 EFFECTIVE MASS     18.9984         S 1 -- F 6         +16.7% ( 35.8%)    100.0%
 FORCE CONSTANT      0.9678         S 1 -- F 4         +16.7% ( 35.8%)    100.0%

 VIBRATION         15    2T1u        ATOM PAIR     ENERGY CONTRIBUTION    RADIAL
 FREQUENCY           894.98         S 1 -- F 5         +24.0% ( 82.6%)     99.9%
 TRANSITION DIPOLE   8.7167         S 1 -- F 7         +24.0% ( 82.6%)     99.9%
 TRAVEL (Ang.)       0.0776         S 1 -- F 3         +13.0% ( 60.8%)      0.5%
 REDUCED MASS       12.5017         S 1 -- F 4         +13.0% ( 60.8%)      0.5%
 EFFECTIVE MASS     26.2369         S 1 -- F 2         +13.0% ( 60.8%)      0.1%
 FORCE CONSTANT      5.8999         S 1 -- F 6         +13.0% ( 60.8%)      0.1%

           FORCE CONSTANT IN CARTESIAN COORDINATES (Millidynes/A)

    ATOM   CHEMICAL       X               Y               Z
   NUMBER   SYMBOL  FORCE CONSTANT  FORCE CONSTANT  FORCE CONSTANT

      1       S        9.551172        9.551172        9.551172
      2       F        4.473889        0.798641        0.798641
      3       F        0.798641        4.473889        0.798641
      4       F        0.798641        4.473889        0.798641
      5       F        0.798641        0.798641        4.473889
      6       F        4.473889        0.798641        0.798641
      7       F        0.798641        0.798641        4.473889

 **********************
 *                    *
 * JOB ENDED NORMALLY *
 *                    *
 **********************



 TOTAL JOB TIME:             0.21 SECONDS

 == MOPAC DONE ==
