 argument  1 = XeO4.nw
                                         
                                         


             Northwest Computational Chemistry Package (NWChem) 7.2.2
             --------------------------------------------------------


                    Environmental Molecular Sciences Laboratory
                       Pacific Northwest National Laboratory
                                Richland, WA 99352

                              Copyright (c) 1994-2022
                       Pacific Northwest National Laboratory
                            Battelle Memorial Institute

             NWChem is an open-source computational chemistry package
                        distributed under the terms of the
                      Educational Community License (ECL) 2.0
             A copy of the license is included with this distribution
                              in the LICENSE.TXT file

                                  ACKNOWLEDGMENT
                                  --------------

            This software and its documentation were developed at the
            EMSL at Pacific Northwest National Laboratory, a multiprogram
            national laboratory, operated for the U.S. Department of Energy
            by Battelle under Contract Number DE-AC05-76RL01830. Support
            for this work was provided by the Department of Energy Office
            of Biological and Environmental Research, Office of Basic
            Energy Sciences, and the Office of Advanced Scientific Computing.


           Job information
           ---------------

    hostname        = MIRO
    program         = nwchem
    date            = Thu Feb 19 07:39:19 2026

    compiled        = Mon_Apr_01_11:12:32_2024
    source          = /build/nwchem-qbYJLs/nwchem-7.2.2/build-openmpi
    nwchem branch   = 7.2.2
    nwchem revision = N/A
    ga revision     = N/A
    use scalapack   = T
    input           = XeO4.nw
    prefix          = XeO4.
    data base       = ./XeO4.db
    status          = restart
    nproc           =        4
    time left       =     -1s



           Memory information
           ------------------

    heap     =   26214400 doubles =    200.0 Mbytes
    stack    =   26214397 doubles =    200.0 Mbytes
    global   =   52428800 doubles =    400.0 Mbytes (distinct from heap & stack)
    total    =  104857597 doubles =    800.0 Mbytes
    verify   = yes
    hardfail = no 


           Directory information
           ---------------------

  0 permanent = .
  0 scratch   = .


           Previous task information
           -------------------------

    Theory    = dft                             
    Operation = energy                        
    Status    = ok                            
    Qmmm      = F
    Ignore    = F


           Geometries in the database
           --------------------------

       Name                              Natoms  Last Modified
       --------------------------------  ------  ------------------------
    1  geometry                               5  Thu Feb 19 07:38:44 2026  

  The geometry named "geometry" is the default for restart



           Basis sets in the database
           --------------------------

       Name                              Natoms  Last Modified
        --------------------------------  ------  ------------------------
    1  ao basis                               2  Thu Feb 19 07:38:44 2026  
    2  ecp basis                              1  Thu Feb 19 07:38:44 2026  

  The basis set named "ao basis" is the default AO basis for restart




                                NWChem Input Module
                                -------------------


                            XeO4 B3LYP ECP Optimization
                            ---------------------------

 Scaling coordinates for geometry "geometry" by  1.889725989
 (inverse scale =  0.529177249)

 C2V symmetry detected

          ------
          auto-z
          ------
  Looking for out-of-plane bends
  no constraints, skipping    0.0000000000000000     
  no constraints, skipping    0.0000000000000000     


                             Geometry "geometry" -> ""
                             -------------------------

 Output coordinates in angstroms (scale by  1.889725989 to convert to a.u.)

  No.       Tag          Charge          X              Y              Z
 ---- ---------------- ---------- -------------- -------------- --------------
    1 Xe                  54.0000     0.00000000     0.00000000    -0.23022081
    2 O                    8.0000    -1.23743687     0.00000000     1.00721605
    3 O                    8.0000     0.00000000     1.75000000    -0.23022081
    4 O                    8.0000     0.00000000    -1.75000000    -0.23022081
    5 O                    8.0000     1.23743687     0.00000000     1.00721605

      Atomic Mass 
      ----------- 

      Xe               131.904200
      O                 15.994910


 Effective nuclear repulsion energy (a.u.)     600.6234863023

            Nuclear Dipole moment (a.u.) 
            ----------------------------
        X                 Y               Z
 ---------------- ---------------- ----------------
     0.0000000000     0.0000000000     0.0000000000

      Symmetry information
      --------------------

 Group name             C2v       
 Group number             16
 Group order               4
 No. of unique centers     3

      Symmetry unique atoms

     1    2    3



                                Z-matrix (autoz)
                                -------- 

 Units are Angstrom for bonds and degrees for angles

      Type          Name      I     J     K     L     M      Value
      ----------- --------  ----- ----- ----- ----- ----- ----------
    1 Stretch                  1     2                       1.75000
    2 Stretch                  1     3                       1.75000
    3 Stretch                  1     4                       1.75000
    4 Stretch                  1     5                       1.75000
    5 Bend                     2     1     3                90.00000
    6 Bend                     2     1     4                90.00000
    7 Bend                     2     1     5                90.00000
    8 Bend                     3     1     5                90.00000
    9 Bend                     4     1     5                90.00000


            XYZ format geometry
            -------------------
     5
 geometry
 Xe                    0.00000000     0.00000000    -0.23022081
 O                    -1.23743687     0.00000000     1.00721605
 O                     0.00000000     1.75000000    -0.23022081
 O                     0.00000000    -1.75000000    -0.23022081
 O                     1.23743687     0.00000000     1.00721605

 ==============================================================================
                                internuclear distances
 ------------------------------------------------------------------------------
       center one      |      center two      | atomic units |  angstroms
 ------------------------------------------------------------------------------
    2 O                |   1 Xe               |     3.30702  |     1.75000
    3 O                |   1 Xe               |     3.30702  |     1.75000
    4 O                |   1 Xe               |     3.30702  |     1.75000
    5 O                |   1 Xe               |     3.30702  |     1.75000
 ------------------------------------------------------------------------------
                         number of included internuclear distances:          4
 ==============================================================================



 ==============================================================================
                                 internuclear angles
 ------------------------------------------------------------------------------
        center 1       |       center 2       |       center 3       |  degrees
 ------------------------------------------------------------------------------
    2 O                |   1 Xe               |   3 O                |    90.00
    2 O                |   1 Xe               |   4 O                |    90.00
    2 O                |   1 Xe               |   5 O                |    90.00
    3 O                |   1 Xe               |   4 O                |   180.00
    3 O                |   1 Xe               |   5 O                |    90.00
    4 O                |   1 Xe               |   5 O                |    90.00
 ------------------------------------------------------------------------------
                            number of included internuclear angles:          6
 ==============================================================================



                      Basis "ao basis" -> "" (cartesian)
                      -----
  Xe (Xenon)
  ----------
            Exponent  Coefficients 
       -------------- ---------------------------------------------------------
  1 S  6.42024817E+03  0.000251
  1 S  9.83545307E+02  0.001625
  1 S  2.19438814E+02  0.004604
  1 S  2.30125878E+01 -0.146987
  1 S  1.80483245E+01  0.575249

  2 S  1.17525502E+01  0.660384
  2 S  6.23909172E+00  0.384705

  3 S  2.62572113E+00  1.000000

  4 S  1.29050429E+00  1.000000

  5 S  3.62041851E-01  1.000000

  6 S  1.40698881E-01  1.000000

  7 P  1.93814325E+02  0.000954
  7 P  2.17252281E+01  0.057393
  7 P  9.88916056E+00 -0.279743

  8 P  1.39606838E+01 -0.050950
  8 P  4.09289471E+00  0.366692
  8 P  2.25468155E+00  0.726195
  8 P  1.15465962E+00  0.355559

  9 P  5.23219231E-01  1.000000

 10 P  2.19455698E-01  1.000000

 11 P  8.61589968E-02  1.000000

 12 D  1.35603000E+02  0.000819
 12 D  3.87270627E+01  0.006090
 12 D  1.53773281E+01 -0.009278
 12 D  5.26025377E+00  0.228908
 12 D  2.65906274E+00  0.444344
 12 D  1.29382051E+00  0.360295

 13 D  5.80508301E-01  1.000000

 14 D  1.80000000E-01  1.000000

 15 F  4.96527930E-01  1.000000

 16 F  2.50000000E+00  1.000000

  O (Oxygen)
  ----------
            Exponent  Coefficients 
       -------------- ---------------------------------------------------------
  1 S  1.30709320E+02  0.154329
  1 S  2.38088610E+01  0.535328
  1 S  6.44360830E+00  0.444635

  2 S  5.03315130E+00 -0.099967
  2 S  1.16959610E+00  0.399513
  2 S  3.80389000E-01  0.700115

  3 P  5.03315130E+00  0.155916
  3 P  1.16959610E+00  0.607684
  3 P  3.80389000E-01  0.391957



 Summary of "ao basis" -> "" (cartesian)
 ------------------------------------------------------------------------------
       Tag                 Description            Shells   Functions and Types
 ---------------- ------------------------------  ------  ---------------------
 Xe                        def2-tzvp                16       59   6s5p3d2f
 O                           sto-3g                  3        5   2s1p


                 ECP       "ecp basis" -> "" (cartesian)
                -----
  Xe (Xenon) Replaces    28 electrons
  -----------------------------------
             Channel    R-exponent     Exponent     Coefficients
         ------------ ---------------------------------------------------------
  1 U L       Both         2.00       20.881557     -23.089295
  1 U L       Both         2.00       20.783443     -30.074475
  1 U L       Both         2.00        5.253389      -0.288227
  1 U L       Both         2.00        5.361188      -0.386924

  2 U-s       Both         2.00       40.005184      49.997962
  2 U-s       Both         2.00       17.812214     281.013303
  2 U-s       Both         2.00        9.304150      61.538255
  2 U-s       Both         2.00       20.881557      23.089295
  2 U-s       Both         2.00       20.783443      30.074475
  2 U-s       Both         2.00        5.253389       0.288227
  2 U-s       Both         2.00        5.361188       0.386924

  3 U-p       Both         2.00       15.701772      67.439142
  3 U-p       Both         2.00       15.258608     134.874711
  3 U-p       Both         2.00        9.292184      14.663300
  3 U-p       Both         2.00        8.559003      29.354730
  3 U-p       Both         2.00       20.881557      23.089295
  3 U-p       Both         2.00       20.783443      30.074475
  3 U-p       Both         2.00        5.253389       0.288227
  3 U-p       Both         2.00        5.361188       0.386924

  4 U-d       Both         2.00       15.185600      35.436908
  4 U-d       Both         2.00       14.284500      53.195772
  4 U-d       Both         2.00        7.121889       9.046232
  4 U-d       Both         2.00        6.991963      13.223681
  4 U-d       Both         2.00        0.623946       0.084853
  4 U-d       Both         2.00        0.647284       0.044155
  4 U-d       Both         2.00       20.881557      23.089295
  4 U-d       Both         2.00       20.783443      30.074475
  4 U-d       Both         2.00        5.253389       0.288227
  4 U-d       Both         2.00        5.361188       0.386924



                           NWChem Geometry Optimization
                           ----------------------------




                            XeO4 B3LYP ECP Optimization


  no constraints, skipping    0.0000000000000000     
 maximum gradient threshold         (gmax) =   0.000450
 rms gradient threshold             (grms) =   0.000300
 maximum cartesian step threshold   (xmax) =   0.001800
 rms cartesian step threshold       (xrms) =   0.001200
 fixed trust radius                (trust) =   0.300000
 maximum step size to saddle      (sadstp) =   0.100000
 energy precision                  (eprec) =   5.0D-06
 maximum number of steps          (nptopt) =  100
 initial hessian option           (inhess) =    0
 line search option               (linopt) =    1
 hessian update option            (modupd) =    1
 saddle point option              (modsad) =    0
 initial eigen-mode to follow     (moddir) =    0
 initial variable to follow       (vardir) =    0
 follow first negative mode     (firstneg) =    T
 apply conjugacy                    (opcg) =    F
 source of zmatrix                         =   autoz   


          -------------------
          Energy Minimization
          -------------------


 Names of Z-matrix variables 
    1              2              3              4              5         
    6              7              8              9         

 Variables with the same non-blank name are constrained to be equal


 Using diagonal initial Hessian 
 Scaling for Hessian diagonals: bonds = 1.00  angles = 0.25  torsions = 0.10

          --------
          Step   0
          --------


                         Geometry "geometry" -> "geometry"
                         ---------------------------------

 Output coordinates in angstroms (scale by  1.889725989 to convert to a.u.)

  No.       Tag          Charge          X              Y              Z
 ---- ---------------- ---------- -------------- -------------- --------------
    1 Xe                  54.0000     0.00000000     0.00000000    -0.23022081
    2 O                    8.0000    -1.23743687     0.00000000     1.00721605
    3 O                    8.0000     0.00000000     1.75000000    -0.23022081
    4 O                    8.0000     0.00000000    -1.75000000    -0.23022081
    5 O                    8.0000     1.23743687     0.00000000     1.00721605

      Atomic Mass 
      ----------- 

      Xe               131.904200
      O                 15.994910


 Effective nuclear repulsion energy (a.u.)     600.6234863023

            Nuclear Dipole moment (a.u.) 
            ----------------------------
        X                 Y               Z
 ---------------- ---------------- ----------------
     0.0000000000     0.0000000000     0.0000000000

      Symmetry information
      --------------------

 Group name             C2v       
 Group number             16
 Group order               4
 No. of unique centers     3

      Symmetry unique atoms

     1    2    3


                                 NWChem DFT Module
                                 -----------------


                            XeO4 B3LYP ECP Optimization




 Summary of "ao basis" -> "ao basis" (cartesian)
 ------------------------------------------------------------------------------
       Tag                 Description            Shells   Functions and Types
 ---------------- ------------------------------  ------  ---------------------
 Xe                        def2-tzvp                16       59   6s5p3d2f
 O                           sto-3g                  3        5   2s1p


      Symmetry analysis of basis
      --------------------------

        a1         34
        a2          7
        b1         19
        b2         19

  Caching 1-el integrals 

            General Information
            -------------------
          SCF calculation type: DFT
          Wavefunction type:  closed shell.
          No. of atoms     :     5
          No. of electrons :    58
           Alpha electrons :    29
            Beta electrons :    29
          Charge           :     0
          Spin multiplicity:     1
          Use of symmetry is: on ; symmetry adaption is: on 
          Maximum number of iterations:  50
          AO basis - number of functions:    79
                     number of shells:    28
          Convergence on energy requested:  1.00D-06
          Convergence on density requested:  1.00D-05
          Convergence on gradient requested:  5.00D-04

              XC Information
              --------------
                         B3LYP Method XC Potential
                     Hartree-Fock (Exact) Exchange  0.200          
                        Slater Exchange Functional  0.800 local    
                    Becke 1988 Exchange Functional  0.720 non-local
              Lee-Yang-Parr Correlation Functional  0.810          
                  VWN I RPA Correlation Functional  0.190 local    

             Grid Information
             ----------------
          Grid used for XC integration:  medium    
          Radial quadrature: Mura-Knowles        
          Angular quadrature: Lebedev. 
          Tag              B.-S. Rad. Rad. Pts. Rad. Cut. Ang. Pts.
          ---              ---------- --------- --------- ---------
          Xe                  1.40      123           6.0       590
          O                   0.60       49           8.0       434
          Grid pruning is: on 
          Number of quadrature shells:   221
          Spatial weights used:  Erf1

          Convergence Information
          -----------------------
          Convergence aids based upon iterative change in 
          total energy or number of iterations. 
          Levelshifting, if invoked, occurs when the 
          HOMO/LUMO gap drops below (HL_TOL):  1.00D-02
          DIIS, if invoked, will attempt to extrapolate 
          using up to (NFOCK): 10 stored Fock matrices.

                    Damping( 0%)  Levelshifting(0.5)       DIIS
                  --------------- ------------------- ---------------
          dE  on:    start            ASAP                start   
          dE off:    2 iters         50 iters            50 iters 


      Screening Tolerance Information
      -------------------------------
          Density screening/tol_rho:  1.00D-10
          AO Gaussian exp screening on grid/accAOfunc:  14
          CD Gaussian exp screening on grid/accCDfunc:  20
          XC Gaussian exp screening on grid/accXCfunc:  20
          Schwarz screening/accCoul:  1.00D-08


 Loading old vectors from job with title :

XeO4 B3LYP ECP Optimization


      Symmetry analysis of molecular orbitals - initial
      -------------------------------------------------

  Numbering of irreducible representations: 

     1 a1          2 a2          3 b1          4 b2      

  Orbital symmetries:

     1 b1          2 a1          3 a1          4 b2          5 a1      
     6 b1          7 b2          8 a1          9 a1         10 a2      
    11 b1         12 b2         13 a1         14 a1         15 b2      
    16 b1         17 a1         18 a1         19 a1         20 b1      
    21 b2         22 a2         23 b2         24 a1         25 b1      
    26 a1         27 b1         28 b2         29 a1         30 a2      
    31 b1         32 a1         33 b2         34 b1         35 a1      
    36 a1         37 b2         38 a1         39 a2      

   Time after variat. SCF:      0.2
   Time prior to 1st pass:      0.2

 Integral file          = ./XeO4.aoints.0
 Record size in doubles =  65536        No. of integs per rec  =  43688
 Max. records in memory =     15        Max. records in file   = 423667
 No. of bits per label  =      8        No. of bits per value  =     64


 #quartets = 3.974D+04 #integrals = 1.018D+06 #direct =  0.0% #cached =100.0%


File balance: exchanges=     0  moved=     0  time=   0.0


 Grid_pts file          = ./XeO4.gridpts.0
 Record size in doubles =  12289        No. of grid_pts per rec  =   3070
 Max. records in memory =     13        Max. recs in file   =   2259377


           Memory utilization after 1st SCF pass: 
           Heap Space remaining (MW):       25.05            25053664
          Stack Space remaining (MW):       26.21            26213836

   convergence    iter        energy       DeltaE   RMS-Dens  Diis-err    time
 ---------------- ----- ----------------- --------- --------- ---------  ------
 d= 0,ls=0.0,diis     1   -625.7645584890 -9.55D+02  3.38D-05  2.12D-07     0.8
 d= 0,ls=0.0,diis     2   -625.7645579310  5.58D-07  2.29D-05  4.88D-06     1.1
 d= 0,ls=0.0,diis     3   -625.7645585842 -6.53D-07  4.04D-06  6.33D-08     1.9


         Total DFT energy =     -625.764558584227
      One electron energy =    -1634.789815781869
           Coulomb energy =      737.329234689644
    Exchange-Corr. energy =      -57.988712306451
 Nuclear repulsion energy =      329.684734814448

 Numeric. integr. density =       57.999990638462

     Total iterative time =      1.7s



                  Occupations of the irreducible representations
                  ----------------------------------------------

                     irrep           alpha         beta
                     --------     --------     --------
                     a1               13.0         13.0
                     a2                2.0          2.0
                     b1                7.0          7.0
                     b2                7.0          7.0


                       DFT Final Molecular Orbital Analysis
                       ------------------------------------

 Vector    1  Occ=2.000000D+00  E=-1.907905D+01  Symmetry=b1
              MO Center= -1.1D-12, -3.4D-21,  1.0D+00, r^2= 1.5D+00
   Bfn.  Coefficient  Atom+Function         Bfn.  Coefficient  Atom+Function  
  ----- ------------  ---------------      ----- ------------  ---------------
    60      0.702147  2 O  s                 75     -0.702147  5 O  s          
    61      0.026648  2 O  s                 76     -0.026648  5 O  s          

 Vector    2  Occ=2.000000D+00  E=-1.907901D+01  Symmetry=a1
              MO Center=  1.1D-12, -2.2D-16,  1.0D+00, r^2= 1.5D+00
   Bfn.  Coefficient  Atom+Function         Bfn.  Coefficient  Atom+Function  
  ----- ------------  ---------------      ----- ------------  ---------------
    60      0.702153  2 O  s                 75      0.702153  5 O  s          
     4     -0.056015  1 Xe s                  5      0.035529  1 Xe s          
    61      0.025304  2 O  s                 76      0.025304  5 O  s          

 Vector    3  Occ=2.000000D+00  E=-1.903564D+01  Symmetry=a1
              MO Center= -5.5D-17,  5.8D-12, -2.3D-01, r^2= 3.1D+00
   Bfn.  Coefficient  Atom+Function         Bfn.  Coefficient  Atom+Function  
  ----- ------------  ---------------      ----- ------------  ---------------
    65      0.702040  3 O  s                 70      0.702040  4 O  s          
     4     -0.054138  1 Xe s                  5      0.031695  1 Xe s          
    66      0.028161  3 O  s                 71      0.028161  4 O  s          
    37     -0.026550  1 Xe dyy        

 Vector    4  Occ=2.000000D+00  E=-1.903520D+01  Symmetry=b2
              MO Center= -9.2D-19, -5.8D-12, -2.3D-01, r^2= 3.1D+00
   Bfn.  Coefficient  Atom+Function         Bfn.  Coefficient  Atom+Function  
  ----- ------------  ---------------      ----- ------------  ---------------
    65      0.702196  3 O  s                 70     -0.702196  4 O  s          

 Vector    5  Occ=2.000000D+00  E=-7.613956D+00  Symmetry=a1
              MO Center= -7.1D-17, -1.2D-16, -2.3D-01, r^2= 1.7D-01
   Bfn.  Coefficient  Atom+Function         Bfn.  Coefficient  Atom+Function  
  ----- ------------  ---------------      ----- ------------  ---------------
     2      1.053704  1 Xe s                  3     -0.866729  1 Xe s          
     4     -0.501395  1 Xe s                  1     -0.437811  1 Xe s          
     5     -0.091278  1 Xe s                  6      0.049182  1 Xe s          

 Vector    6  Occ=2.000000D+00  E=-5.525456D+00  Symmetry=b1
              MO Center= -2.0D-16,  1.1D-16, -2.3D-01, r^2= 1.9D-01
   Bfn.  Coefficient  Atom+Function         Bfn.  Coefficient  Atom+Function  
  ----- ------------  ---------------      ----- ------------  ---------------
    10      1.078166  1 Xe px                 7      0.191714  1 Xe px         
    13      0.039969  1 Xe px         

 Vector    7  Occ=2.000000D+00  E=-5.524288D+00  Symmetry=b2
              MO Center= -9.7D-17,  8.7D-17, -2.3D-01, r^2= 1.9D-01
   Bfn.  Coefficient  Atom+Function         Bfn.  Coefficient  Atom+Function  
  ----- ------------  ---------------      ----- ------------  ---------------
    11      1.078160  1 Xe py                 8      0.191694  1 Xe py         
    14      0.039776  1 Xe py         

 Vector    8  Occ=2.000000D+00  E=-5.518922D+00  Symmetry=a1
              MO Center=  1.3D-16,  8.5D-17, -2.3D-01, r^2= 1.9D-01
   Bfn.  Coefficient  Atom+Function         Bfn.  Coefficient  Atom+Function  
  ----- ------------  ---------------      ----- ------------  ---------------
    12      1.078851  1 Xe pz                 9      0.191801  1 Xe pz         
    15      0.039320  1 Xe pz         

 Vector    9  Occ=2.000000D+00  E=-2.430195D+00  Symmetry=a1
              MO Center=  4.1D-16, -2.2D-16, -2.3D-01, r^2= 2.5D-01
   Bfn.  Coefficient  Atom+Function         Bfn.  Coefficient  Atom+Function  
  ----- ------------  ---------------      ----- ------------  ---------------
    25      0.876463  1 Xe dyy               22     -0.694373  1 Xe dxx        
    27     -0.188534  1 Xe dzz               31      0.124550  1 Xe dyy        
    28     -0.088382  1 Xe dxx        

 Vector   10  Occ=2.000000D+00  E=-2.425932D+00  Symmetry=a2
              MO Center=  1.4D-16,  7.6D-16, -2.3D-01, r^2= 2.5D-01
   Bfn.  Coefficient  Atom+Function         Bfn.  Coefficient  Atom+Function  
  ----- ------------  ---------------      ----- ------------  ---------------
    23      1.610358  1 Xe dxy               29      0.212237  1 Xe dxy        

 Vector   11  Occ=2.000000D+00  E=-2.424713D+00  Symmetry=b1
              MO Center= -2.8D-16, -9.6D-16, -2.3D-01, r^2= 2.5D-01
   Bfn.  Coefficient  Atom+Function         Bfn.  Coefficient  Atom+Function  
  ----- ------------  ---------------      ----- ------------  ---------------
    24      1.605625  1 Xe dxz               30      0.215929  1 Xe dxz        

 Vector   12  Occ=2.000000D+00  E=-2.420620D+00  Symmetry=b2
              MO Center= -1.7D-16,  1.4D-16, -2.3D-01, r^2= 2.5D-01
   Bfn.  Coefficient  Atom+Function         Bfn.  Coefficient  Atom+Function  
  ----- ------------  ---------------      ----- ------------  ---------------
    26      1.611017  1 Xe dyz               32      0.211170  1 Xe dyz        

 Vector   13  Occ=2.000000D+00  E=-2.420025D+00  Symmetry=a1
              MO Center= -9.4D-17, -1.9D-17, -2.3D-01, r^2= 2.5D-01
   Bfn.  Coefficient  Atom+Function         Bfn.  Coefficient  Atom+Function  
  ----- ------------  ---------------      ----- ------------  ---------------
    27      0.910580  1 Xe dzz               22     -0.618990  1 Xe dxx        
    25     -0.290264  1 Xe dyy               33      0.119237  1 Xe dzz        
    28     -0.081182  1 Xe dxx               31     -0.040149  1 Xe dyy        

 Vector   14  Occ=2.000000D+00  E=-1.174780D+00  Symmetry=a1
              MO Center= -1.9D-14,  3.2D-14,  2.5D-01, r^2= 1.7D+00
   Bfn.  Coefficient  Atom+Function         Bfn.  Coefficient  Atom+Function  
  ----- ------------  ---------------      ----- ------------  ---------------
     5      0.465725  1 Xe s                  3     -0.407574  1 Xe s          
     2      0.383200  1 Xe s                 61      0.344708  2 O  s          
    76      0.344708  5 O  s                  4     -0.322983  1 Xe s          
    66      0.262144  3 O  s                 71      0.262144  4 O  s          
     6      0.173257  1 Xe s                  1     -0.149077  1 Xe s          

 Vector   15  Occ=2.000000D+00  E=-1.016721D+00  Symmetry=b2
              MO Center= -3.3D-16, -1.7D-14, -2.3D-01, r^2= 2.7D+00
   Bfn.  Coefficient  Atom+Function         Bfn.  Coefficient  Atom+Function  
  ----- ------------  ---------------      ----- ------------  ---------------
    66      0.595872  3 O  s                 71     -0.595872  4 O  s          
    11     -0.224329  1 Xe py                14      0.179883  1 Xe py         
    65     -0.162045  3 O  s                 70      0.162045  4 O  s          
    68     -0.124092  3 O  py                73     -0.124092  4 O  py         
    46      0.076184  1 Xe fyyy              20      0.046296  1 Xe py         

 Vector   16  Occ=2.000000D+00  E=-1.001530D+00  Symmetry=b1
              MO Center=  3.0D-14, -1.6D-16,  8.0D-01, r^2= 1.8D+00
   Bfn.  Coefficient  Atom+Function         Bfn.  Coefficient  Atom+Function  
  ----- ------------  ---------------      ----- ------------  ---------------
    61      0.645960  2 O  s                 76     -0.645960  5 O  s          
    24      0.182703  1 Xe dxz               10      0.173194  1 Xe px         
    60     -0.171341  2 O  s                 75      0.171341  5 O  s          
    13     -0.141288  1 Xe px                64     -0.091207  2 O  pz         
    79      0.091207  5 O  pz                30     -0.082452  1 Xe dxz        

 Vector   17  Occ=2.000000D+00  E=-9.664466D-01  Symmetry=a1
              MO Center= -1.1D-14, -1.6D-14,  2.3D-01, r^2= 2.7D+00
   Bfn.  Coefficient  Atom+Function         Bfn.  Coefficient  Atom+Function  
  ----- ------------  ---------------      ----- ------------  ---------------
    66     -0.492088  3 O  s                 71     -0.492088  4 O  s          
    61      0.457186  2 O  s                 76      0.457186  5 O  s          
    65      0.129058  3 O  s                 70      0.129058  4 O  s          
     5     -0.124697  1 Xe s                 12     -0.121647  1 Xe pz         
    25      0.121748  1 Xe dyy               60     -0.119700  2 O  s          

 Vector   18  Occ=2.000000D+00  E=-7.076695D-01  Symmetry=a1
              MO Center=  8.0D-15, -4.5D-15, -7.3D-02, r^2= 2.8D+00
   Bfn.  Coefficient  Atom+Function         Bfn.  Coefficient  Atom+Function  
  ----- ------------  ---------------      ----- ------------  ---------------
     6      0.739189  1 Xe s                  5      0.686860  1 Xe s          
     4     -0.628588  1 Xe s                  2      0.459403  1 Xe s          
    66     -0.448537  3 O  s                 71     -0.448537  4 O  s          
     3     -0.438972  1 Xe s                 61     -0.323785  2 O  s          
    76     -0.323785  5 O  s                 37     -0.199971  1 Xe dyy        

 Vector   19  Occ=2.000000D+00  E=-4.988535D-01  Symmetry=a1
              MO Center= -4.1D-17,  1.4D-16,  3.0D-01, r^2= 2.5D+00
   Bfn.  Coefficient  Atom+Function         Bfn.  Coefficient  Atom+Function  
  ----- ------------  ---------------      ----- ------------  ---------------
    18      0.442236  1 Xe pz                12     -0.390605  1 Xe pz         
    62      0.329517  2 O  px                77     -0.329517  5 O  px         
     6      0.321981  1 Xe s                 15      0.306226  1 Xe pz         
    61     -0.304801  2 O  s                 76     -0.304801  5 O  s          
    34     -0.194711  1 Xe dxx               69      0.167448  3 O  pz         

 Vector   20  Occ=2.000000D+00  E=-4.954326D-01  Symmetry=b1
              MO Center= -8.4D-15, -4.5D-18,  4.3D-01, r^2= 2.5D+00
   Bfn.  Coefficient  Atom+Function         Bfn.  Coefficient  Atom+Function  
  ----- ------------  ---------------      ----- ------------  ---------------
    16      0.454477  1 Xe px                10     -0.391455  1 Xe px         
    61      0.341216  2 O  s                 76     -0.341216  5 O  s          
    64      0.320170  2 O  pz                79     -0.320170  5 O  pz         
    13      0.308318  1 Xe px                67      0.163599  3 O  px         
    72      0.163599  4 O  px                62     -0.144145  2 O  px         

 Vector   21  Occ=2.000000D+00  E=-4.793571D-01  Symmetry=b2
              MO Center= -4.1D-15,  3.5D-15, -1.1D-01, r^2= 3.4D+00
   Bfn.  Coefficient  Atom+Function         Bfn.  Coefficient  Atom+Function  
  ----- ------------  ---------------      ----- ------------  ---------------
    17      0.484997  1 Xe py                66     -0.403145  3 O  s          
    71      0.403145  4 O  s                 68     -0.380207  3 O  py         
    73     -0.380207  4 O  py                11     -0.349624  1 Xe py         
    14      0.273380  1 Xe py                63      0.175199  2 O  py         
    78      0.175199  5 O  py                20     -0.117555  1 Xe py         

 Vector   22  Occ=2.000000D+00  E=-3.633855D-01  Symmetry=a2
              MO Center=  2.8D-12,  1.1D-14,  3.0D-01, r^2= 2.9D+00
   Bfn.  Coefficient  Atom+Function         Bfn.  Coefficient  Atom+Function  
  ----- ------------  ---------------      ----- ------------  ---------------
    35      0.541134  1 Xe dxy               63     -0.405857  2 O  py         
    78      0.405857  5 O  py                67      0.380736  3 O  px         
    72     -0.380736  4 O  px                23     -0.221686  1 Xe dxy        
    44      0.206141  1 Xe fxyz              29      0.093519  1 Xe dxy        
    54      0.038191  1 Xe fxyz       

 Vector   23  Occ=2.000000D+00  E=-3.622031D-01  Symmetry=b2
              MO Center= -2.8D-12, -4.4D-14,  3.2D-01, r^2= 3.0D+00
   Bfn.  Coefficient  Atom+Function         Bfn.  Coefficient  Atom+Function  
  ----- ------------  ---------------      ----- ------------  ---------------
    38      0.492432  1 Xe dyz               63      0.374907  2 O  py         
    78      0.374907  5 O  py                69      0.364985  3 O  pz         
    74     -0.364985  4 O  pz                26     -0.201796  1 Xe dyz        
    20      0.185984  1 Xe py                68      0.185957  3 O  py         
    73      0.185957  4 O  py                17     -0.108483  1 Xe py         

 Vector   24  Occ=2.000000D+00  E=-3.506626D-01  Symmetry=a1
              MO Center=  1.4D-16,  3.2D-14,  8.2D-01, r^2= 2.3D+00
   Bfn.  Coefficient  Atom+Function         Bfn.  Coefficient  Atom+Function  
  ----- ------------  ---------------      ----- ------------  ---------------
    64      0.524072  2 O  pz                79      0.524072  5 O  pz         
    39      0.242947  1 Xe dzz               62      0.218455  2 O  px         
    77     -0.218455  5 O  px                34     -0.171801  1 Xe dxx        
    68     -0.157560  3 O  py                73      0.157560  4 O  py         
    42     -0.148555  1 Xe fxxz              21      0.140294  1 Xe pz         

 Vector   25  Occ=2.000000D+00  E=-3.176606D-01  Symmetry=b1
              MO Center=  3.5D-15, -6.2D-15,  4.9D-01, r^2= 3.1D+00
   Bfn.  Coefficient  Atom+Function         Bfn.  Coefficient  Atom+Function  
  ----- ------------  ---------------      ----- ------------  ---------------
    62      0.518069  2 O  px                77      0.518069  5 O  px         
    19      0.348474  1 Xe px                67      0.326213  3 O  px         
    72      0.326213  4 O  px                24      0.201273  1 Xe dxz        
    43      0.185081  1 Xe fxyy              30     -0.171949  1 Xe dxz        
    45     -0.169407  1 Xe fxzz              16     -0.080187  1 Xe px         

 Vector   26  Occ=2.000000D+00  E=-3.089946D-01  Symmetry=a1
              MO Center= -1.8D-15,  1.1D-13, -7.7D-02, r^2= 3.5D+00
   Bfn.  Coefficient  Atom+Function         Bfn.  Coefficient  Atom+Function  
  ----- ------------  ---------------      ----- ------------  ---------------
    69      0.419859  3 O  pz                74      0.419859  4 O  pz         
    68     -0.373612  3 O  py                73      0.373612  4 O  py         
    62     -0.291297  2 O  px                77      0.291297  5 O  px         
    47      0.229552  1 Xe fyyz              21      0.216833  1 Xe pz         
    25     -0.130511  1 Xe dyy               39     -0.127334  1 Xe dzz        

 Vector   27  Occ=2.000000D+00  E=-2.759336D-01  Symmetry=b1
              MO Center=  1.1D-15, -1.2D-14,  4.9D-01, r^2= 2.9D+00
   Bfn.  Coefficient  Atom+Function         Bfn.  Coefficient  Atom+Function  
  ----- ------------  ---------------      ----- ------------  ---------------
    67     -0.425081  3 O  px                72     -0.425081  4 O  px         
    64      0.411063  2 O  pz                79     -0.411063  5 O  pz         
    62      0.353514  2 O  px                77      0.353514  5 O  px         
    43     -0.224187  1 Xe fxyy              40      0.099106  1 Xe fxxx       
    45     -0.084148  1 Xe fxzz              53     -0.047138  1 Xe fxyy       

 Vector   28  Occ=2.000000D+00  E=-2.707140D-01  Symmetry=b2
              MO Center=  1.4D-14, -9.5D-14,  1.8D-01, r^2= 3.3D+00
   Bfn.  Coefficient  Atom+Function         Bfn.  Coefficient  Atom+Function  
  ----- ------------  ---------------      ----- ------------  ---------------
    69      0.481698  3 O  pz                74     -0.481698  4 O  pz         
    63     -0.430354  2 O  py                78     -0.430354  5 O  py         
    20     -0.255886  1 Xe py                38      0.181242  1 Xe dyz        
    68     -0.150964  3 O  py                73     -0.150964  4 O  py         
    41     -0.120022  1 Xe fxxy              48     -0.112078  1 Xe fyzz       

 Vector   29  Occ=2.000000D+00  E=-2.381342D-01  Symmetry=a1
              MO Center= -1.9D-15,  3.6D-15, -2.9D-01, r^2= 3.2D+00
   Bfn.  Coefficient  Atom+Function         Bfn.  Coefficient  Atom+Function  
  ----- ------------  ---------------      ----- ------------  ---------------
     5      0.447714  1 Xe s                 68      0.449571  3 O  py         
    73     -0.449571  4 O  py                69      0.439259  3 O  pz         
    74      0.439259  4 O  pz                 6     -0.376323  1 Xe s          
    39      0.288550  1 Xe dzz               18     -0.265556  1 Xe pz         
    47      0.203649  1 Xe fyyz              34      0.192468  1 Xe dxx        

 Vector   30  Occ=0.000000D+00  E=-2.131828D-01  Symmetry=a2
              MO Center= -2.1D-15,  3.5D-15,  3.9D-01, r^2= 3.1D+00
   Bfn.  Coefficient  Atom+Function         Bfn.  Coefficient  Atom+Function  
  ----- ------------  ---------------      ----- ------------  ---------------
    63      0.516270  2 O  py                78     -0.516270  5 O  py         
    67      0.473215  3 O  px                72     -0.473215  4 O  px         
    44     -0.258251  1 Xe fxyz              35      0.134407  1 Xe dxy        
    54     -0.053535  1 Xe fxyz              23     -0.045151  1 Xe dxy        

 Vector   31  Occ=0.000000D+00  E=-6.428852D-02  Symmetry=b1
              MO Center= -6.6D-16,  2.3D-15, -1.8D-01, r^2= 2.7D+00
   Bfn.  Coefficient  Atom+Function         Bfn.  Coefficient  Atom+Function  
  ----- ------------  ---------------      ----- ------------  ---------------
    36      0.575686  1 Xe dxz               64      0.401668  2 O  pz         
    79     -0.401668  5 O  pz                67      0.373026  3 O  px         
    72      0.373026  4 O  px                10      0.337951  1 Xe px         
    13     -0.292833  1 Xe px                16     -0.292637  1 Xe px         
    24     -0.275513  1 Xe dxz               19     -0.205493  1 Xe px         

 Vector   32  Occ=0.000000D+00  E= 5.840125D-02  Symmetry=a1
              MO Center= -1.5D-16, -2.5D-16, -3.2D-01, r^2= 3.3D+00
   Bfn.  Coefficient  Atom+Function         Bfn.  Coefficient  Atom+Function  
  ----- ------------  ---------------      ----- ------------  ---------------
     6      1.554900  1 Xe s                 39     -0.726947  1 Xe dzz        
     4     -0.714083  1 Xe s                 21      0.717056  1 Xe pz         
     5      0.520430  1 Xe s                 37     -0.425208  1 Xe dyy        
    34     -0.394431  1 Xe dxx                2      0.377689  1 Xe s          
     3     -0.340003  1 Xe s                 18     -0.339643  1 Xe pz         

 Vector   33  Occ=0.000000D+00  E= 1.112153D-01  Symmetry=b2
              MO Center=  7.3D-16, -1.2D-15, -4.2D-01, r^2= 3.3D+00
   Bfn.  Coefficient  Atom+Function         Bfn.  Coefficient  Atom+Function  
  ----- ------------  ---------------      ----- ------------  ---------------
    20      0.945945  1 Xe py                66     -0.463081  3 O  s          
    71      0.463081  4 O  s                 38     -0.418641  1 Xe dyz        
    41      0.418482  1 Xe fxxy              48      0.386614  1 Xe fyzz       
    14      0.367845  1 Xe py                11     -0.333929  1 Xe py         
    68      0.313025  3 O  py                73      0.313025  4 O  py         

 Vector   34  Occ=0.000000D+00  E= 1.876648D-01  Symmetry=b1
              MO Center=  1.6D-14,  7.4D-17, -3.7D-01, r^2= 5.8D+00
   Bfn.  Coefficient  Atom+Function         Bfn.  Coefficient  Atom+Function  
  ----- ------------  ---------------      ----- ------------  ---------------
    16      2.014532  1 Xe px                19     -1.776815  1 Xe px         
    45     -0.497920  1 Xe fxzz              40     -0.369281  1 Xe fxxx       
    10     -0.295623  1 Xe px                62      0.269013  2 O  px         
    77      0.269013  5 O  px                43     -0.229628  1 Xe fxyy       
    36      0.210322  1 Xe dxz               64     -0.160128  2 O  pz         

 Vector   35  Occ=0.000000D+00  E= 1.886016D-01  Symmetry=a1
              MO Center= -1.4D-14,  3.1D-16, -5.3D-01, r^2= 4.5D+00
   Bfn.  Coefficient  Atom+Function         Bfn.  Coefficient  Atom+Function  
  ----- ------------  ---------------      ----- ------------  ---------------
     6      1.897977  1 Xe s                 18     -1.840327  1 Xe pz         
    21      1.424771  1 Xe pz                39     -0.754617  1 Xe dzz        
    34     -0.663714  1 Xe dxx               37     -0.596841  1 Xe dyy        
    42      0.527935  1 Xe fxxz               5     -0.493825  1 Xe s          
     4     -0.476534  1 Xe s                 12      0.392379  1 Xe pz         

 Vector   36  Occ=0.000000D+00  E= 2.376281D-01  Symmetry=a1
              MO Center= -1.4D-15,  5.9D-16, -1.5D-01, r^2= 3.4D+00
   Bfn.  Coefficient  Atom+Function         Bfn.  Coefficient  Atom+Function  
  ----- ------------  ---------------      ----- ------------  ---------------
     6      4.547518  1 Xe s                 34     -2.244970  1 Xe dxx        
    37     -1.446015  1 Xe dyy                4     -1.170681  1 Xe s          
    39     -1.128251  1 Xe dzz                5     -0.617638  1 Xe s          
    28     -0.554926  1 Xe dxx               31     -0.486200  1 Xe dyy        
    21     -0.479270  1 Xe pz                33     -0.422288  1 Xe dzz        

 Vector   37  Occ=0.000000D+00  E= 2.597739D-01  Symmetry=b2
              MO Center= -3.2D-17,  9.8D-16, -2.6D-01, r^2= 4.9D+00
   Bfn.  Coefficient  Atom+Function         Bfn.  Coefficient  Atom+Function  
  ----- ------------  ---------------      ----- ------------  ---------------
    17      1.987427  1 Xe py                20     -1.649123  1 Xe py         
    68      0.482857  3 O  py                73      0.482857  4 O  py         
    46     -0.411288  1 Xe fyyy              11     -0.389204  1 Xe py         
    38      0.199826  1 Xe dyz               66      0.161350  3 O  s          
    71     -0.161350  4 O  s                 14      0.144390  1 Xe py         

 Vector   38  Occ=0.000000D+00  E= 3.259581D-01  Symmetry=a1
              MO Center=  2.8D-16,  3.8D-16,  5.7D-01, r^2= 3.1D+00
   Bfn.  Coefficient  Atom+Function         Bfn.  Coefficient  Atom+Function  
  ----- ------------  ---------------      ----- ------------  ---------------
     6      4.171932  1 Xe s                 39     -2.050530  1 Xe dzz        
    37     -1.446783  1 Xe dyy                4     -1.000903  1 Xe s          
    21     -0.900474  1 Xe pz                34     -0.857980  1 Xe dxx        
    18      0.758399  1 Xe pz                 5     -0.754081  1 Xe s          
    33     -0.549551  1 Xe dzz               31     -0.437613  1 Xe dyy        

 Vector   39  Occ=0.000000D+00  E= 3.515776D-01  Symmetry=a2
              MO Center=  1.6D-15, -1.3D-16, -2.9D-01, r^2= 2.7D+00
   Bfn.  Coefficient  Atom+Function         Bfn.  Coefficient  Atom+Function  
  ----- ------------  ---------------      ----- ------------  ---------------
    35      1.701296  1 Xe dxy               67     -0.463653  3 O  px         
    72      0.463653  4 O  px                23     -0.442059  1 Xe dxy        
    44     -0.383935  1 Xe fxyz              63      0.281549  2 O  py         
    78     -0.281549  5 O  py                29      0.258431  1 Xe dxy        
    54     -0.100098  1 Xe fxyz       

 Vector   40  Occ=0.000000D+00  E= 3.835226D-01  Symmetry=b2
              MO Center= -2.3D-15, -8.5D-17,  6.1D-02, r^2= 2.9D+00
   Bfn.  Coefficient  Atom+Function         Bfn.  Coefficient  Atom+Function  
  ----- ------------  ---------------      ----- ------------  ---------------
    38      1.642441  1 Xe dyz               17     -0.705301  1 Xe py         
    20      0.605269  1 Xe py                26     -0.439170  1 Xe dyz        
    69     -0.430753  3 O  pz                74      0.430753  4 O  pz         
    63     -0.357628  2 O  py                78     -0.357628  5 O  py         
    32      0.274817  1 Xe dyz               48      0.244891  1 Xe fyzz       

 Vector   41  Occ=0.000000D+00  E= 4.349587D-01  Symmetry=b1
              MO Center=  1.2D-17,  4.6D-16, -3.1D-01, r^2= 2.7D+00
   Bfn.  Coefficient  Atom+Function         Bfn.  Coefficient  Atom+Function  
  ----- ------------  ---------------      ----- ------------  ---------------
    36      1.996313  1 Xe dxz               19      0.652120  1 Xe px         
    61      0.646066  2 O  s                 76     -0.646066  5 O  s          
    43      0.543543  1 Xe fxyy              45     -0.520240  1 Xe fxzz       
    16     -0.383837  1 Xe px                13      0.292432  1 Xe px         
    40      0.271880  1 Xe fxxx              24     -0.255510  1 Xe dxz        

 Vector   42  Occ=0.000000D+00  E= 6.929107D-01  Symmetry=a1
              MO Center= -8.5D-16, -4.0D-16, -3.6D-01, r^2= 2.7D+00
   Bfn.  Coefficient  Atom+Function         Bfn.  Coefficient  Atom+Function  
  ----- ------------  ---------------      ----- ------------  ---------------
     6      4.222520  1 Xe s                 37     -2.936728  1 Xe dyy        
     5     -1.352321  1 Xe s                 66      0.959400  3 O  s          
    71      0.959400  4 O  s                  4     -0.727567  1 Xe s          
    42     -0.715205  1 Xe fxxz              34     -0.622310  1 Xe dxx        
    39     -0.521164  1 Xe dzz               28     -0.493753  1 Xe dxx        

 Vector   43  Occ=0.000000D+00  E= 7.336344D-01  Symmetry=b2
              MO Center=  5.6D-17, -1.7D-16, -2.4D-01, r^2= 1.1D+00
   Bfn.  Coefficient  Atom+Function         Bfn.  Coefficient  Atom+Function  
  ----- ------------  ---------------      ----- ------------  ---------------
    48     -1.736528  1 Xe fyzz              41      1.712207  1 Xe fxxy       
    51      0.539224  1 Xe fxxy              58     -0.529055  1 Xe fyzz       
    17      0.098999  1 Xe py                46     -0.054100  1 Xe fyyy       
    38      0.046856  1 Xe dyz               14     -0.044462  1 Xe py         

 Vector   44  Occ=0.000000D+00  E= 7.748468D-01  Symmetry=a2
              MO Center= -7.0D-16,  8.8D-18, -1.1D-01, r^2= 1.2D+00
   Bfn.  Coefficient  Atom+Function         Bfn.  Coefficient  Atom+Function  
  ----- ------------  ---------------      ----- ------------  ---------------
    44      3.446726  1 Xe fxyz              54      1.096245  1 Xe fxyz       
    63      0.217255  2 O  py                78     -0.217255  5 O  py         
    29      0.202946  1 Xe dxy               35      0.145059  1 Xe dxy        
    23     -0.142710  1 Xe dxy               67     -0.041075  3 O  px         
    72      0.041075  4 O  px         

 Vector   45  Occ=0.000000D+00  E= 7.832322D-01  Symmetry=b1
              MO Center= -2.2D-16,  2.4D-16, -2.0D-01, r^2= 1.3D+00
   Bfn.  Coefficient  Atom+Function         Bfn.  Coefficient  Atom+Function  
  ----- ------------  ---------------      ----- ------------  ---------------
    43      1.928822  1 Xe fxyy              45      1.434469  1 Xe fxzz       
    16     -1.078247  1 Xe px                53      0.531360  1 Xe fxyy       
    40     -0.486966  1 Xe fxxx              55      0.370548  1 Xe fxzz       
    13      0.348235  1 Xe px                19      0.344663  1 Xe px         
    50     -0.244116  1 Xe fxxx              67     -0.158781  3 O  px         

 Vector   46  Occ=0.000000D+00  E= 7.905211D-01  Symmetry=b2
              MO Center=  5.3D-16, -5.4D-16, -1.7D-01, r^2= 2.8D+00
   Bfn.  Coefficient  Atom+Function         Bfn.  Coefficient  Atom+Function  
  ----- ------------  ---------------      ----- ------------  ---------------
    17      4.177601  1 Xe py                46     -1.978114  1 Xe fyyy       
    14     -1.338256  1 Xe py                20     -1.068676  1 Xe py         
    41     -0.837335  1 Xe fxxy              48     -0.726305  1 Xe fyzz       
    11      0.440401  1 Xe py                56     -0.283718  1 Xe fyyy       
    63     -0.189171  2 O  py                78     -0.189171  5 O  py         

 Vector   47  Occ=0.000000D+00  E= 7.983381D-01  Symmetry=a1
              MO Center=  4.0D-17,  1.0D-16, -2.0D-01, r^2= 1.3D+00
   Bfn.  Coefficient  Atom+Function         Bfn.  Coefficient  Atom+Function  
  ----- ------------  ---------------      ----- ------------  ---------------
    47      1.945103  1 Xe fyyz              42      1.298741  1 Xe fxxz       
    18     -0.975743  1 Xe pz                57      0.548964  1 Xe fyyz       
    49     -0.510800  1 Xe fzzz              52      0.338642  1 Xe fxxz       
    21      0.321625  1 Xe pz                37     -0.312560  1 Xe dyy        
    15      0.308388  1 Xe pz                 6      0.280939  1 Xe s          

 Vector   48  Occ=0.000000D+00  E= 8.404956D-01  Symmetry=b1
              MO Center= -3.3D-16,  1.3D-15, -1.7D-01, r^2= 2.6D+00
   Bfn.  Coefficient  Atom+Function         Bfn.  Coefficient  Atom+Function  
  ----- ------------  ---------------      ----- ------------  ---------------
    16      3.860469  1 Xe px                45     -2.258376  1 Xe fxzz       
    40     -1.437290  1 Xe fxxx              13     -1.302452  1 Xe px         
    19     -1.020081  1 Xe px                10      0.431415  1 Xe px         
    55     -0.413695  1 Xe fxzz              53      0.273139  1 Xe fxyy       
    67     -0.200985  3 O  px                72     -0.200985  4 O  px         

 Vector   49  Occ=0.000000D+00  E= 8.485780D-01  Symmetry=a1
              MO Center=  4.1D-16, -7.0D-17, -1.3D-01, r^2= 2.6D+00
   Bfn.  Coefficient  Atom+Function         Bfn.  Coefficient  Atom+Function  
  ----- ------------  ---------------      ----- ------------  ---------------
    18      3.732813  1 Xe pz                42     -2.289627  1 Xe fxxz       
    49     -1.361142  1 Xe fzzz               6      1.324129  1 Xe s          
    15     -1.254634  1 Xe pz                21     -1.004936  1 Xe pz         
     4     -0.774157  1 Xe s                 34     -0.502355  1 Xe dxx        
    52     -0.441119  1 Xe fxxz              12      0.414924  1 Xe pz         

 Vector   50  Occ=0.000000D+00  E= 1.074125D+00  Symmetry=a1
              MO Center= -5.5D-16,  5.7D-17, -2.2D-01, r^2= 2.5D+00
   Bfn.  Coefficient  Atom+Function         Bfn.  Coefficient  Atom+Function  
  ----- ------------  ---------------      ----- ------------  ---------------
     6      5.803910  1 Xe s                 18     -3.650088  1 Xe pz         
    39     -2.135864  1 Xe dzz               47      2.092221  1 Xe fyyz       
    34     -2.039601  1 Xe dxx                5     -1.660567  1 Xe s          
    49      1.376621  1 Xe fzzz               4     -1.149368  1 Xe s          
    15      0.994890  1 Xe pz                31     -0.925343  1 Xe dyy        

 Vector   51  Occ=0.000000D+00  E= 1.112094D+00  Symmetry=b1
              MO Center=  2.1D-16,  2.3D-18, -9.5D-02, r^2= 2.2D+00
   Bfn.  Coefficient  Atom+Function         Bfn.  Coefficient  Atom+Function  
  ----- ------------  ---------------      ----- ------------  ---------------
    16      3.620979  1 Xe px                43     -2.229912  1 Xe fxyy       
    36      1.924826  1 Xe dxz               40     -1.372038  1 Xe fxxx       
    13     -0.942137  1 Xe px                61      0.826818  2 O  s          
    76     -0.826818  5 O  s                 30     -0.660168  1 Xe dxz        
    19     -0.628042  1 Xe px                55      0.577425  1 Xe fxzz       

 Vector   52  Occ=0.000000D+00  E= 1.248128D+00  Symmetry=b2
              MO Center=  5.0D-17, -2.8D-18, -1.6D-01, r^2= 1.9D+00
   Bfn.  Coefficient  Atom+Function         Bfn.  Coefficient  Atom+Function  
  ----- ------------  ---------------      ----- ------------  ---------------
    17      4.299543  1 Xe py                41     -2.593335  1 Xe fxxy       
    48     -2.604837  1 Xe fyzz              14     -0.954111  1 Xe py         
    20     -0.826373  1 Xe py                66     -0.675167  3 O  s          
    71      0.675167  4 O  s                 51     -0.645535  1 Xe fxxy       
    58     -0.644778  1 Xe fyzz              68      0.526467  3 O  py         

 Vector   53  Occ=0.000000D+00  E= 1.283110D+00  Symmetry=a1
              MO Center=  5.9D-18, -6.5D-16, -2.8D-01, r^2= 1.7D+00
   Bfn.  Coefficient  Atom+Function         Bfn.  Coefficient  Atom+Function  
  ----- ------------  ---------------      ----- ------------  ---------------
    33     -1.365117  1 Xe dzz                6      1.271674  1 Xe s          
    28      1.127337  1 Xe dxx               34     -1.121338  1 Xe dxx        
    27      0.632820  1 Xe dzz               22     -0.594624  1 Xe dxx        
    39      0.448666  1 Xe dzz                5     -0.322054  1 Xe s          
     4     -0.279155  1 Xe s                 31     -0.252821  1 Xe dyy        

 Vector   54  Occ=0.000000D+00  E= 1.283243D+00  Symmetry=a2
              MO Center= -6.8D-16, -8.8D-18, -2.8D-01, r^2= 1.7D+00
   Bfn.  Coefficient  Atom+Function         Bfn.  Coefficient  Atom+Function  
  ----- ------------  ---------------      ----- ------------  ---------------
    29      2.510757  1 Xe dxy               35     -1.665832  1 Xe dxy        
    23     -1.226447  1 Xe dxy               44     -0.283801  1 Xe fxyz       
    54     -0.147293  1 Xe fxyz              67      0.140917  3 O  px         
    72     -0.140917  4 O  px                63     -0.110874  2 O  py         
    78      0.110874  5 O  py         

 Vector   55  Occ=0.000000D+00  E= 1.292779D+00  Symmetry=b2
              MO Center=  6.5D-16,  7.1D-16, -2.9D-01, r^2= 1.7D+00
   Bfn.  Coefficient  Atom+Function         Bfn.  Coefficient  Atom+Function  
  ----- ------------  ---------------      ----- ------------  ---------------
    32      2.499097  1 Xe dyz               38     -1.658742  1 Xe dyz        
    26     -1.219691  1 Xe dyz               48     -0.265847  1 Xe fyzz       
    17      0.262496  1 Xe py                41     -0.242446  1 Xe fxxy       
    69      0.139713  3 O  pz                74     -0.139713  4 O  pz         
    63      0.109060  2 O  py                78      0.109060  5 O  py         

 Vector   56  Occ=0.000000D+00  E= 1.332363D+00  Symmetry=a1
              MO Center=  1.2D-15,  3.8D-16, -5.4D-02, r^2= 2.2D+00
   Bfn.  Coefficient  Atom+Function         Bfn.  Coefficient  Atom+Function  
  ----- ------------  ---------------      ----- ------------  ---------------
     6     18.326157  1 Xe s                 39     -4.756420  1 Xe dzz        
    34     -4.655775  1 Xe dxx                5     -4.613117  1 Xe s          
     4     -3.893379  1 Xe s                 37     -3.907068  1 Xe dyy        
    31     -3.149164  1 Xe dyy               28     -1.978688  1 Xe dxx        
    33     -1.803202  1 Xe dzz               18      1.475212  1 Xe pz         

 Vector   57  Occ=0.000000D+00  E= 1.357500D+00  Symmetry=b1
              MO Center= -8.1D-16,  3.4D-17, -2.2D-01, r^2= 1.6D+00
   Bfn.  Coefficient  Atom+Function         Bfn.  Coefficient  Atom+Function  
  ----- ------------  ---------------      ----- ------------  ---------------
    30      2.504242  1 Xe dxz               16      1.284574  1 Xe px         
    24     -1.250251  1 Xe dxz               36     -1.200566  1 Xe dxz        
    43     -0.586270  1 Xe fxyy              19     -0.438231  1 Xe px         
    40     -0.427573  1 Xe fxxx              13     -0.263030  1 Xe px         
    64     -0.205737  2 O  pz                79      0.205737  5 O  pz         

 Vector   58  Occ=0.000000D+00  E= 1.419218D+00  Symmetry=a1
              MO Center= -4.4D-16, -2.0D-18, -2.7D-01, r^2= 1.8D+00
   Bfn.  Coefficient  Atom+Function         Bfn.  Coefficient  Atom+Function  
  ----- ------------  ---------------      ----- ------------  ---------------
     6     13.743412  1 Xe s                 37     -4.168887  1 Xe dyy        
     5     -4.083434  1 Xe s                 34     -3.016929  1 Xe dxx        
    39     -2.973691  1 Xe dzz                4     -2.382603  1 Xe s          
    33     -2.176979  1 Xe dzz               28     -2.124880  1 Xe dxx        
     3      0.724971  1 Xe s                 27      0.652449  1 Xe dzz        

 Vector   59  Occ=0.000000D+00  E= 2.779473D+00  Symmetry=b1
              MO Center= -5.0D-16, -7.6D-18, -2.3D-01, r^2= 1.8D+00
   Bfn.  Coefficient  Atom+Function         Bfn.  Coefficient  Atom+Function  
  ----- ------------  ---------------      ----- ------------  ---------------
    16      4.771237  1 Xe px                43     -4.049204  1 Xe fxyy       
    40     -4.014563  1 Xe fxxx              45     -3.990795  1 Xe fxzz       
    13      2.745606  1 Xe px                10     -1.231396  1 Xe px         
    19     -0.822628  1 Xe px                55     -0.499601  1 Xe fxzz       
    50     -0.360577  1 Xe fxxx              53     -0.213599  1 Xe fxyy       

 Vector   60  Occ=0.000000D+00  E= 2.781942D+00  Symmetry=b2
              MO Center=  5.5D-17, -6.0D-17, -2.3D-01, r^2= 1.7D+00
   Bfn.  Coefficient  Atom+Function         Bfn.  Coefficient  Atom+Function  
  ----- ------------  ---------------      ----- ------------  ---------------
    17      4.546352  1 Xe py                41     -4.015093  1 Xe fxxy       
    48     -3.994134  1 Xe fyzz              46     -3.962772  1 Xe fyyy       
    14      2.807459  1 Xe py                11     -1.232708  1 Xe py         
    20     -0.728326  1 Xe py                56     -0.481130  1 Xe fyyy       
    58     -0.198814  1 Xe fyzz              68     -0.164278  3 O  py         

 Vector   61  Occ=0.000000D+00  E= 2.789617D+00  Symmetry=a1
              MO Center=  2.3D-16, -1.9D-17, -1.7D-01, r^2= 1.8D+00
   Bfn.  Coefficient  Atom+Function         Bfn.  Coefficient  Atom+Function  
  ----- ------------  ---------------      ----- ------------  ---------------
    18      4.738871  1 Xe pz                47     -4.044230  1 Xe fyyz       
    42     -3.982597  1 Xe fxxz              49     -3.996567  1 Xe fzzz       
    15      2.744769  1 Xe pz                 5      1.860692  1 Xe s          
    12     -1.229390  1 Xe pz                 4     -1.156647  1 Xe s          
    21     -0.815055  1 Xe pz                 6     -0.742032  1 Xe s          

 Vector   62  Occ=0.000000D+00  E= 3.024117D+00  Symmetry=b2
              MO Center=  1.2D-16, -7.4D-17, -2.3D-01, r^2= 4.9D-01
   Bfn.  Coefficient  Atom+Function         Bfn.  Coefficient  Atom+Function  
  ----- ------------  ---------------      ----- ------------  ---------------
    51      1.947845  1 Xe fxxy              58     -1.921919  1 Xe fyzz       
    48      1.061861  1 Xe fyzz              41     -0.989637  1 Xe fxxy       
    46      0.052728  1 Xe fyyy              17     -0.041013  1 Xe py         
    14     -0.039250  1 Xe py         

 Vector   63  Occ=0.000000D+00  E= 3.052273D+00  Symmetry=a2
              MO Center= -1.6D-17,  1.2D-19, -2.3D-01, r^2= 5.1D-01
   Bfn.  Coefficient  Atom+Function         Bfn.  Coefficient  Atom+Function  
  ----- ------------  ---------------      ----- ------------  ---------------
    54      3.862883  1 Xe fxyz              44     -2.147962  1 Xe fxyz       
    35     -0.101259  1 Xe dxy               63     -0.086169  2 O  py         
    78      0.086169  5 O  py                29      0.056876  1 Xe dxy        

 Vector   64  Occ=0.000000D+00  E= 3.059911D+00  Symmetry=b1
              MO Center=  2.8D-17,  4.9D-17, -2.3D-01, r^2= 5.2D-01
   Bfn.  Coefficient  Atom+Function         Bfn.  Coefficient  Atom+Function  
  ----- ------------  ---------------      ----- ------------  ---------------
    53      1.895331  1 Xe fxyy              55      1.032991  1 Xe fxzz       
    43     -0.978328  1 Xe fxyy              50     -0.964976  1 Xe fxxx       
    40      0.641655  1 Xe fxxx              45     -0.483931  1 Xe fxzz       
    16     -0.151526  1 Xe px                67      0.081351  3 O  px         
    72      0.081351  4 O  px                62     -0.041385  2 O  px         

 Vector   65  Occ=0.000000D+00  E= 3.070470D+00  Symmetry=a1
              MO Center= -7.9D-19,  3.8D-18, -2.3D-01, r^2= 5.2D-01
   Bfn.  Coefficient  Atom+Function         Bfn.  Coefficient  Atom+Function  
  ----- ------------  ---------------      ----- ------------  ---------------
    57      1.879315  1 Xe fyyz              52      1.060971  1 Xe fxxz       
    59     -0.963444  1 Xe fzzz              47     -0.948210  1 Xe fyyz       
    49      0.669018  1 Xe fzzz              42     -0.482777  1 Xe fxxz       
    18     -0.175444  1 Xe pz                69      0.080276  3 O  pz         
    74      0.080276  4 O  pz                64     -0.050877  2 O  pz         

 Vector   66  Occ=0.000000D+00  E= 3.208145D+00  Symmetry=a1
              MO Center=  5.3D-17, -8.9D-18, -2.3D-01, r^2= 6.1D-01
   Bfn.  Coefficient  Atom+Function         Bfn.  Coefficient  Atom+Function  
  ----- ------------  ---------------      ----- ------------  ---------------
     5      3.660899  1 Xe s                  4     -2.216923  1 Xe s          
    52      2.144319  1 Xe fxxz              42     -1.651970  1 Xe fxxz       
    57     -1.543459  1 Xe fyyz               6     -1.110116  1 Xe s          
    31     -0.979447  1 Xe dyy               33     -0.953576  1 Xe dzz        
    47      0.957993  1 Xe fyyz              28     -0.920985  1 Xe dxx        

 Vector   67  Occ=0.000000D+00  E= 3.227943D+00  Symmetry=b1
              MO Center= -1.9D-18,  4.0D-17, -2.2D-01, r^2= 6.1D-01
   Bfn.  Coefficient  Atom+Function         Bfn.  Coefficient  Atom+Function  
  ----- ------------  ---------------      ----- ------------  ---------------
    55      2.170855  1 Xe fxzz              45     -1.679838  1 Xe fxzz       
    53     -1.532391  1 Xe fxyy              43      1.002201  1 Xe fxyy       
    36     -0.587458  1 Xe dxz               13      0.366826  1 Xe px         
    16     -0.367383  1 Xe px                61     -0.326432  2 O  s          
    76      0.326432  5 O  s                 50     -0.229820  1 Xe fxxx       

 Vector   68  Occ=0.000000D+00  E= 3.401242D+00  Symmetry=b2
              MO Center=  1.3D-17, -2.2D-16, -2.3D-01, r^2= 6.8D-01
   Bfn.  Coefficient  Atom+Function         Bfn.  Coefficient  Atom+Function  
  ----- ------------  ---------------      ----- ------------  ---------------
    58      1.468935  1 Xe fyzz              51      1.439926  1 Xe fxxy       
    48     -1.149833  1 Xe fyzz              41     -1.134075  1 Xe fxxy       
    46      0.989001  1 Xe fyyy              56     -0.952108  1 Xe fyyy       
    17      0.863869  1 Xe py                14     -0.689139  1 Xe py         
    66     -0.398103  3 O  s                 71      0.398103  4 O  s          

 Vector   69  Occ=0.000000D+00  E= 3.653249D+00  Symmetry=a1
              MO Center= -5.4D-18,  3.1D-16, -2.9D-01, r^2= 1.5D+00
   Bfn.  Coefficient  Atom+Function         Bfn.  Coefficient  Atom+Function  
  ----- ------------  ---------------      ----- ------------  ---------------
     5     26.374677  1 Xe s                  4    -21.016365  1 Xe s          
    28    -10.064230  1 Xe dxx               31    -10.028619  1 Xe dyy        
    33    -10.062862  1 Xe dzz                6      7.828785  1 Xe s          
     2      2.864380  1 Xe s                 22      2.507937  1 Xe dxx        
    27      2.507952  1 Xe dzz               25      2.492096  1 Xe dyy        

 Vector   70  Occ=0.000000D+00  E= 9.564674D+00  Symmetry=b1
              MO Center=  4.4D-15, -2.0D-19, -2.3D-01, r^2= 6.0D-01
   Bfn.  Coefficient  Atom+Function         Bfn.  Coefficient  Atom+Function  
  ----- ------------  ---------------      ----- ------------  ---------------
    13      2.862770  1 Xe px                50     -2.746923  1 Xe fxxx       
    53     -2.755491  1 Xe fxyy              55     -2.734639  1 Xe fxzz       
    10      2.610166  1 Xe px                45     -2.521868  1 Xe fxzz       
    40     -2.478652  1 Xe fxxx              43     -2.451141  1 Xe fxyy       
    16      2.352088  1 Xe px                 7      0.591048  1 Xe px         

 Vector   71  Occ=0.000000D+00  E= 9.565493D+00  Symmetry=a1
              MO Center= -5.7D-15, -6.5D-18, -4.3D-02, r^2= 5.8D-01
   Bfn.  Coefficient  Atom+Function         Bfn.  Coefficient  Atom+Function  
  ----- ------------  ---------------      ----- ------------  ---------------
     5     17.181889  1 Xe s                  4    -15.575292  1 Xe s          
     6     -4.706803  1 Xe s                 28     -4.164825  1 Xe dxx        
    31     -4.148499  1 Xe dyy               33     -4.167255  1 Xe dzz        
     3      4.082205  1 Xe s                 15      2.713894  1 Xe pz         
    57     -2.612816  1 Xe fyyz              52     -2.594661  1 Xe fxxz       

 Vector   72  Occ=0.000000D+00  E= 9.591799D+00  Symmetry=b2
              MO Center=  1.1D-16, -9.6D-17, -2.3D-01, r^2= 5.9D-01
   Bfn.  Coefficient  Atom+Function         Bfn.  Coefficient  Atom+Function  
  ----- ------------  ---------------      ----- ------------  ---------------
    14      2.920862  1 Xe py                51     -2.775643  1 Xe fxxy       
    58     -2.776270  1 Xe fyzz              56     -2.739676  1 Xe fyyy       
    11      2.607161  1 Xe py                46     -2.545314  1 Xe fyyy       
    41     -2.426577  1 Xe fxxy              48     -2.426451  1 Xe fyzz       
    17      2.269676  1 Xe py                 8      0.591540  1 Xe py         

 Vector   73  Occ=0.000000D+00  E= 9.663547D+00  Symmetry=a1
              MO Center=  1.3D-15,  1.1D-16, -4.2D-01, r^2= 7.0D-01
   Bfn.  Coefficient  Atom+Function         Bfn.  Coefficient  Atom+Function  
  ----- ------------  ---------------      ----- ------------  ---------------
     5    -51.742222  1 Xe s                  4     47.230605  1 Xe s          
    28     12.833541  1 Xe dxx               31     12.835941  1 Xe dyy        
    33     12.832523  1 Xe dzz                6     12.559036  1 Xe s          
     3    -12.348008  1 Xe s                 22     -6.216630  1 Xe dxx        
    25     -6.216780  1 Xe dyy               27     -6.216117  1 Xe dzz        

 Vector   74  Occ=0.000000D+00  E= 2.718977D+01  Symmetry=a1
              MO Center=  7.0D-17,  2.6D-18, -2.3D-01, r^2= 3.3D-01
   Bfn.  Coefficient  Atom+Function         Bfn.  Coefficient  Atom+Function  
  ----- ------------  ---------------      ----- ------------  ---------------
     4     85.337618  1 Xe s                  5     39.609233  1 Xe s          
    22    -39.791172  1 Xe dxx               25    -39.790634  1 Xe dyy        
    27    -39.791195  1 Xe dzz                2    -36.025002  1 Xe s          
     6    -27.445241  1 Xe s                  1     10.975180  1 Xe s          
    34      5.978021  1 Xe dxx               37      5.970310  1 Xe dyy        

 Vector   75  Occ=0.000000D+00  E= 4.610264D+01  Symmetry=b1
              MO Center= -1.4D-17,  2.2D-20, -2.3D-01, r^2= 9.5D-02
   Bfn.  Coefficient  Atom+Function         Bfn.  Coefficient  Atom+Function  
  ----- ------------  ---------------      ----- ------------  ---------------
    10      3.065248  1 Xe px                 7      2.002681  1 Xe px         
    50     -1.732702  1 Xe fxxx              53     -1.734053  1 Xe fxyy       
    55     -1.730672  1 Xe fxzz              16      0.645540  1 Xe px         
    45     -0.642168  1 Xe fxzz              40     -0.633097  1 Xe fxxx       
    43     -0.627253  1 Xe fxyy              13      0.604346  1 Xe px         

 Vector   76  Occ=0.000000D+00  E= 4.610693D+01  Symmetry=a1
              MO Center=  5.5D-19,  1.1D-18, -2.3D-01, r^2= 9.5D-02
   Bfn.  Coefficient  Atom+Function         Bfn.  Coefficient  Atom+Function  
  ----- ------------  ---------------      ----- ------------  ---------------
    12      3.065560  1 Xe pz                 9      2.002793  1 Xe pz         
    52     -1.730775  1 Xe fxxz              57     -1.734786  1 Xe fyyz       
    59     -1.733273  1 Xe fzzz              18      0.643885  1 Xe pz         
    42     -0.644437  1 Xe fxxz              49     -0.633436  1 Xe fzzz       
    47     -0.626839  1 Xe fyyz              15      0.605929  1 Xe pz         

 Vector   77  Occ=0.000000D+00  E= 4.611518D+01  Symmetry=b2
              MO Center= -1.9D-18,  1.7D-18, -2.3D-01, r^2= 9.5D-02
   Bfn.  Coefficient  Atom+Function         Bfn.  Coefficient  Atom+Function  
  ----- ------------  ---------------      ----- ------------  ---------------
    11      3.067127  1 Xe py                 8      2.003652  1 Xe py         
    51     -1.740530  1 Xe fxxy              56     -1.734725  1 Xe fyyy       
    58     -1.740536  1 Xe fyzz              46     -0.650943  1 Xe fyyy       
    17      0.629621  1 Xe py                41     -0.625367  1 Xe fxxy       
    48     -0.625370  1 Xe fyzz              14      0.620499  1 Xe py         

 Vector   78  Occ=0.000000D+00  E= 7.627333D+01  Symmetry=a1
              MO Center=  3.1D-17,  2.9D-18, -2.3D-01, r^2= 1.3D-01
   Bfn.  Coefficient  Atom+Function         Bfn.  Coefficient  Atom+Function  
  ----- ------------  ---------------      ----- ------------  ---------------
     5     75.776499  1 Xe s                  4     61.263243  1 Xe s          
     2    -47.633394  1 Xe s                  6    -39.948710  1 Xe s          
    22    -39.579153  1 Xe dxx               25    -39.579100  1 Xe dyy        
    27    -39.579155  1 Xe dzz                1     18.023484  1 Xe s          
     3     15.126652  1 Xe s                 28    -11.838402  1 Xe dxx        

 Vector   79  Occ=0.000000D+00  E= 1.157161D+02  Symmetry=a1
              MO Center=  9.7D-18,  2.9D-18, -2.3D-01, r^2= 8.0D-02
   Bfn.  Coefficient  Atom+Function         Bfn.  Coefficient  Atom+Function  
  ----- ------------  ---------------      ----- ------------  ---------------
     4     41.878061  1 Xe s                  5     24.515294  1 Xe s          
    22    -20.718129  1 Xe dxx               25    -20.717867  1 Xe dyy        
    27    -20.718138  1 Xe dzz                2    -18.973320  1 Xe s          
     6    -15.965731  1 Xe s                  1      4.472223  1 Xe s          
    34      3.463391  1 Xe dxx               37      3.458782  1 Xe dyy        


 center of mass
 --------------
 x =   0.00000000 y =   0.00000000 z =  -0.05316708

 moments of inertia (a.u.)
 ------------------
         496.212184110923           0.000000000000           0.000000000000
           0.000000000000         321.285699023981           0.000000000000
           0.000000000000           0.000000000000         524.779455260824

     Multipole analysis of the density
     ---------------------------------

     L   x y z        total         alpha         beta         nuclear
     -   - - -        -----         -----         ----         -------
     0   0 0 0     -0.000000    -29.000000    -29.000000     58.000000

     1   1 0 0      0.000000      0.000000      0.000000      0.000000
     1   0 1 0      0.000000      0.000000      0.000000      0.000000
     1   0 0 1     -0.454110     -6.317815     -6.317815     12.181519

     2   2 0 0    -33.959333    -60.725204    -60.725204     87.491076
     2   1 1 0      0.000000      0.000000      0.000000      0.000000
     2   1 0 1     -0.000000     -0.000000     -0.000000      0.000000
     2   0 2 0    -36.414828   -105.698490   -105.698490    174.982151
     2   0 1 1      0.000000      0.000000      0.000000      0.000000
     2   0 0 2    -34.026033    -49.970039    -49.970039     65.914045


 Parallel integral file used      25 records with       0 large values


            General Information
            -------------------
          SCF calculation type: DFT
          Wavefunction type:  closed shell.
          No. of atoms     :     5
          No. of electrons :    58
           Alpha electrons :    29
            Beta electrons :    29
          Charge           :     0
          Spin multiplicity:     1
          Use of symmetry is: on ; symmetry adaption is: on 
          Maximum number of iterations:  50
          AO basis - number of functions:    79
                     number of shells:    28
          Convergence on energy requested:  1.00D-06
          Convergence on density requested:  1.00D-05
          Convergence on gradient requested:  5.00D-04

              XC Information
              --------------
                         B3LYP Method XC Potential
                     Hartree-Fock (Exact) Exchange  0.200          
                        Slater Exchange Functional  0.800 local    
                    Becke 1988 Exchange Functional  0.720 non-local
              Lee-Yang-Parr Correlation Functional  0.810          
                  VWN I RPA Correlation Functional  0.190 local    

             Grid Information
             ----------------
          Grid used for XC integration:  medium    
          Radial quadrature: Mura-Knowles        
          Angular quadrature: Lebedev. 
          Tag              B.-S. Rad. Rad. Pts. Rad. Cut. Ang. Pts.
          ---              ---------- --------- --------- ---------
          Xe                  1.40      123           6.0       590
          O                   0.60       49           8.0       434
          Grid pruning is: on 
          Number of quadrature shells:   221
          Spatial weights used:  Erf1

          Convergence Information
          -----------------------
          Convergence aids based upon iterative change in 
          total energy or number of iterations. 
          Levelshifting, if invoked, occurs when the 
          HOMO/LUMO gap drops below (HL_TOL):  1.00D-02
          DIIS, if invoked, will attempt to extrapolate 
          using up to (NFOCK): 10 stored Fock matrices.

                    Damping( 0%)  Levelshifting(0.5)       DIIS
                  --------------- ------------------- ---------------
          dE  on:    start            ASAP                start   
          dE off:    2 iters         50 iters            50 iters 


      Screening Tolerance Information
      -------------------------------
          Density screening/tol_rho:  1.00D-10
          AO Gaussian exp screening on grid/accAOfunc:  14
          CD Gaussian exp screening on grid/accCDfunc:  20
          XC Gaussian exp screening on grid/accXCfunc:  20
          Schwarz screening/accCoul:  1.00D-08



                            NWChem DFT Gradient Module
                            --------------------------


                            XeO4 B3LYP ECP Optimization



  charge          =   0.00
  wavefunction    = closed shell

  Using symmetry


                         DFT ENERGY GRADIENTS

    atom               coordinates                        gradient
                 x          y          z           x          y          z
   1 Xe      0.000000   0.000000  -0.435054    0.000000   0.000000   0.046801
   2 O      -2.338417   0.000000   1.903362    0.044828   0.000000  -0.006592
   3 O       0.000000   3.307020  -0.435054    0.000000  -0.076081  -0.016808
   4 O       0.000000  -3.307020  -0.435054    0.000000   0.076081  -0.016808
   5 O       2.338417   0.000000   1.903362   -0.044828   0.000000  -0.006592

                 ----------------------------------------
                 |  Time  |  1-e(secs)   |  2-e(secs)   |
                 ----------------------------------------
                 |  CPU   |       0.01   |       0.29   |
                 ----------------------------------------
                 |  WALL  |       0.01   |       0.30   |
                 ----------------------------------------
  no constraints, skipping    0.0000000000000000     

@ Step       Energy      Delta E   Gmax     Grms     Xrms     Xmax   Walltime
@ ---- ---------------- -------- -------- -------- -------- -------- --------
@    0    -625.76455858  0.0D+00  0.07608  0.04496  0.00000  0.00000      2.8
                                                                    



                                Z-matrix (autoz)
                                -------- 

 Units are Angstrom for bonds and degrees for angles

      Type          Name      I     J     K     L     M      Value     Gradient
      ----------- --------  ----- ----- ----- ----- ----- ---------- ----------
    1 Stretch                  1     2                       1.75000   -0.03636
    2 Stretch                  1     3                       1.75000   -0.07608
    3 Stretch                  1     4                       1.75000   -0.07608
    4 Stretch                  1     5                       1.75000   -0.03636
    5 Bend                     2     1     3                90.00000    0.02080
    6 Bend                     2     1     4                90.00000    0.02080
    7 Bend                     2     1     5                90.00000   -0.04731
    8 Bend                     3     1     5                90.00000    0.02080
[...]
     6    -16.020458  1 Xe s                  1      4.479236  1 Xe s          
    34      3.472519  1 Xe dxx               37      3.472517  1 Xe dyy        


 center of mass
 --------------
 x =   0.00000000 y =   0.00000000 z =  -0.06250196

 moments of inertia (a.u.)
 ------------------
         382.896900428369           0.000000000000           0.000000000000
           0.000000000000         382.857266924085           0.000000000000
           0.000000000000           0.000000000000         643.955399830635

     Multipole analysis of the density
     ---------------------------------

     L   x y z        total         alpha         beta         nuclear
     -   - - -        -----         -----         ----         -------
     0   0 0 0     -0.000000    -29.000000    -29.000000     58.000000

     1   1 0 0      0.000000      0.000000      0.000000      0.000000
     1   0 1 0      0.000000      0.000000      0.000000      0.000000
     1   0 0 1     -0.606307     -6.251932     -6.251932     11.897556

     2   2 0 0    -35.436933    -98.233551    -98.233551    161.030169
     2   1 1 0      0.000000      0.000000      0.000000      0.000000
     2   1 0 1     -0.000000     -0.000000     -0.000000      0.000000
     2   0 2 0    -35.438764    -98.244378    -98.244378    161.049992
     2   0 1 1     -0.000000     -0.000000     -0.000000      0.000000
     2   0 0 2    -33.143072    -27.930374    -27.930374     22.717676


 Parallel integral file used      30 records with       0 large values

 Line search: 
     step= 1.00 grad=-2.0D-07 hess= 1.4D-07 energy=   -625.822431 mode=accept  
 new step= 1.00                   predicted energy=   -625.822431
  no constraints, skipping    0.0000000000000000     
  no constraints, skipping    0.0000000000000000     
  no constraints, skipping    0.0000000000000000     

          --------
          Step   8
          --------


                         Geometry "geometry" -> "geometry"
                         ---------------------------------

 Output coordinates in angstroms (scale by  1.889725989 to convert to a.u.)

  No.       Tag          Charge          X              Y              Z
 ---- ---------------- ---------- -------------- -------------- --------------
    1 Xe                  54.0000     0.00000000     0.00000000    -0.23856896
    2 O                    8.0000    -1.67878391     0.00000000     0.39068061
    3 O                    8.0000     0.00000000     1.67888724     0.39048871
    4 O                    8.0000     0.00000000    -1.67888724     0.39048871
    5 O                    8.0000     1.67878391     0.00000000     0.39068061

      Atomic Mass 
      ----------- 

      Xe               131.904200
      O                 15.994910


 Effective nuclear repulsion energy (a.u.)     587.2664825419

            Nuclear Dipole moment (a.u.) 
            ----------------------------
        X                 Y               Z
 ---------------- ---------------- ----------------
     0.0000000000     0.0000000000    -0.7256831017

      Symmetry information
      --------------------

 Group name             C2v       
 Group number             16
 Group order               4
 No. of unique centers     3

      Symmetry unique atoms

     1    2    3


                                 NWChem DFT Module
                                 -----------------


                            XeO4 B3LYP ECP Optimization




 Summary of "ao basis" -> "ao basis" (cartesian)
 ------------------------------------------------------------------------------
       Tag                 Description            Shells   Functions and Types
 ---------------- ------------------------------  ------  ---------------------
 Xe                        def2-tzvp                16       59   6s5p3d2f
 O                           sto-3g                  3        5   2s1p


      Symmetry analysis of basis
      --------------------------

        a1         34
        a2          7
        b1         19
        b2         19


  The DFT is already converged 

         Total DFT energy =   -625.822430679469


            General Information
            -------------------
          SCF calculation type: DFT
          Wavefunction type:  closed shell.
          No. of atoms     :     5
          No. of electrons :    58
           Alpha electrons :    29
            Beta electrons :    29
          Charge           :     0
          Spin multiplicity:     1
          Use of symmetry is: on ; symmetry adaption is: on 
          Maximum number of iterations:  50
          AO basis - number of functions:    79
                     number of shells:    28
          Convergence on energy requested:  1.00D-06
          Convergence on density requested:  1.00D-05
          Convergence on gradient requested:  5.00D-04

              XC Information
              --------------
                         B3LYP Method XC Potential
                     Hartree-Fock (Exact) Exchange  0.200          
                        Slater Exchange Functional  0.800 local    
                    Becke 1988 Exchange Functional  0.720 non-local
              Lee-Yang-Parr Correlation Functional  0.810          
                  VWN I RPA Correlation Functional  0.190 local    

             Grid Information
             ----------------
          Grid used for XC integration:  medium    
          Radial quadrature: Mura-Knowles        
          Angular quadrature: Lebedev. 
          Tag              B.-S. Rad. Rad. Pts. Rad. Cut. Ang. Pts.
          ---              ---------- --------- --------- ---------
          Xe                  1.40      123           6.0       590
          O                   0.60       49           8.0       434
          Grid pruning is: on 
          Number of quadrature shells:   221
          Spatial weights used:  Erf1

          Convergence Information
          -----------------------
          Convergence aids based upon iterative change in 
          total energy or number of iterations. 
          Levelshifting, if invoked, occurs when the 
          HOMO/LUMO gap drops below (HL_TOL):  1.00D-02
          DIIS, if invoked, will attempt to extrapolate 
          using up to (NFOCK): 10 stored Fock matrices.

                    Damping( 0%)  Levelshifting(0.5)       DIIS
                  --------------- ------------------- ---------------
          dE  on:    start            ASAP                start   
          dE off:    2 iters         50 iters            50 iters 


      Screening Tolerance Information
      -------------------------------
          Density screening/tol_rho:  1.00D-10
          AO Gaussian exp screening on grid/accAOfunc:  14
          CD Gaussian exp screening on grid/accCDfunc:  20
          XC Gaussian exp screening on grid/accXCfunc:  20
          Schwarz screening/accCoul:  1.00D-08



                            NWChem DFT Gradient Module
                            --------------------------


                            XeO4 B3LYP ECP Optimization



  charge          =   0.00
  wavefunction    = closed shell

  Using symmetry


                         DFT ENERGY GRADIENTS

    atom               coordinates                        gradient
                 x          y          z           x          y          z
   1 Xe      0.000000   0.000000  -0.450830    0.000000   0.000000  -0.000001
   2 O      -3.172442   0.000000   0.738279    0.000011   0.000000   0.000000
   3 O       0.000000   3.172637   0.737917    0.000000  -0.000008   0.000000
   4 O       0.000000  -3.172637   0.737917   -0.000000   0.000008   0.000000
   5 O       3.172442   0.000000   0.738279   -0.000011   0.000000   0.000000

                 ----------------------------------------
                 |  Time  |  1-e(secs)   |  2-e(secs)   |
                 ----------------------------------------
                 |  CPU   |       0.03   |       0.29   |
                 ----------------------------------------
                 |  WALL  |       0.03   |       0.30   |
                 ----------------------------------------
  no constraints, skipping    0.0000000000000000     

  Step       Energy      Delta E   Gmax     Grms     Xrms     Xmax   Walltime
  ---- ---------------- -------- -------- -------- -------- -------- --------
@    8    -625.82243068 -6.0D-08  0.00001  0.00001  0.00054  0.00098     50.8
                                     ok       ok       ok       ok  



                                Z-matrix (autoz)
                                -------- 

 Units are Angstrom for bonds and degrees for angles

      Type          Name      I     J     K     L     M      Value     Gradient
      ----------- --------  ----- ----- ----- ----- ----- ---------- ----------
    1 Stretch                  1     2                       1.79284   -0.00001
    2 Stretch                  1     3                       1.79287   -0.00001
    3 Stretch                  1     4                       1.79287   -0.00001
    4 Stretch                  1     5                       1.79284   -0.00001
    5 Bend                     2     1     3                82.92624   -0.00001
    6 Bend                     2     1     4                82.92624   -0.00001
    7 Bend                     2     1     5               138.90553   -0.00000
    8 Bend                     3     1     5                82.92624   -0.00001
    9 Bend                     4     1     5                82.92624   -0.00001


      ----------------------
      Optimization converged
      ----------------------


  Step       Energy      Delta E   Gmax     Grms     Xrms     Xmax   Walltime
  ---- ---------------- -------- -------- -------- -------- -------- --------
@    8    -625.82243068 -6.0D-08  0.00001  0.00001  0.00054  0.00098     50.8
                                     ok       ok       ok       ok  



                                Z-matrix (autoz)
                                -------- 

 Units are Angstrom for bonds and degrees for angles

      Type          Name      I     J     K     L     M      Value     Gradient
      ----------- --------  ----- ----- ----- ----- ----- ---------- ----------
    1 Stretch                  1     2                       1.79284   -0.00001
    2 Stretch                  1     3                       1.79287   -0.00001
    3 Stretch                  1     4                       1.79287   -0.00001
    4 Stretch                  1     5                       1.79284   -0.00001
    5 Bend                     2     1     3                82.92624   -0.00001
    6 Bend                     2     1     4                82.92624   -0.00001
    7 Bend                     2     1     5               138.90553   -0.00000
    8 Bend                     3     1     5                82.92624   -0.00001
    9 Bend                     4     1     5                82.92624   -0.00001



                         Geometry "geometry" -> "geometry"
                         ---------------------------------

 Output coordinates in angstroms (scale by  1.889725989 to convert to a.u.)

  No.       Tag          Charge          X              Y              Z
 ---- ---------------- ---------- -------------- -------------- --------------
    1 Xe                  54.0000     0.00000000     0.00000000    -0.23856896
    2 O                    8.0000    -1.67878391     0.00000000     0.39068061
    3 O                    8.0000     0.00000000     1.67888724     0.39048871
    4 O                    8.0000     0.00000000    -1.67888724     0.39048871
    5 O                    8.0000     1.67878391     0.00000000     0.39068061

      Atomic Mass 
      ----------- 

      Xe               131.904200
      O                 15.994910


 Effective nuclear repulsion energy (a.u.)     587.2664825419

            Nuclear Dipole moment (a.u.) 
            ----------------------------
        X                 Y               Z
 ---------------- ---------------- ----------------
     0.0000000000     0.0000000000    -0.7256831017

      Symmetry information
      --------------------

 Group name             C2v       
 Group number             16
 Group order               4
 No. of unique centers     3

      Symmetry unique atoms

     1    2    3


                Final and change from initial internal coordinates
                --------------------------------------------------



                                Z-matrix (autoz)
                                -------- 

 Units are Angstrom for bonds and degrees for angles

      Type          Name      I     J     K     L     M      Value       Change
      ----------- --------  ----- ----- ----- ----- ----- ---------- ----------
    1 Stretch                  1     2                       1.79284    0.04284
    2 Stretch                  1     3                       1.79287    0.04287
    3 Stretch                  1     4                       1.79287    0.04287
    4 Stretch                  1     5                       1.79284    0.04284
    5 Bend                     2     1     3                82.92624   -7.07376
    6 Bend                     2     1     4                82.92624   -7.07376
    7 Bend                     2     1     5               138.90553   48.90553
    8 Bend                     3     1     5                82.92624   -7.07376
    9 Bend                     4     1     5                82.92624   -7.07376

 ==============================================================================
                                internuclear distances
 ------------------------------------------------------------------------------
       center one      |      center two      | atomic units |  angstroms
 ------------------------------------------------------------------------------
    2 O                |   1 Xe               |     3.38797  |     1.79284
    3 O                |   1 Xe               |     3.38803  |     1.79287
    4 O                |   1 Xe               |     3.38803  |     1.79287
    5 O                |   1 Xe               |     3.38797  |     1.79284
 ------------------------------------------------------------------------------
                         number of included internuclear distances:          4
 ==============================================================================



 ==============================================================================
                                 internuclear angles
 ------------------------------------------------------------------------------
        center 1       |       center 2       |       center 3       |  degrees
 ------------------------------------------------------------------------------
    2 O                |   1 Xe               |   3 O                |    82.93
    2 O                |   1 Xe               |   4 O                |    82.93
    2 O                |   1 Xe               |   5 O                |   138.91
    3 O                |   1 Xe               |   4 O                |   138.92
    3 O                |   1 Xe               |   5 O                |    82.93
    4 O                |   1 Xe               |   5 O                |    82.93
 ------------------------------------------------------------------------------
                            number of included internuclear angles:          6
 ==============================================================================




 Task  times  cpu:       76.5s     wall:       50.8s


                                NWChem Input Module
                                -------------------


 Summary of allocated global arrays
-----------------------------------
  No active global arrays


MA_summarize_allocated_blocks: starting scan ...
MA_summarize_allocated_blocks: scan completed: 0 heap blocks, 0 stack blocks
MA usage statistics:

	allocation statistics:
					      heap	     stack
					      ----	     -----
	current number of blocks	         0	         0
	maximum number of blocks	        41	        57
	current total bytes		         0	         0
	maximum total bytes		   9285840	  42194248
	maximum total K-bytes		      9286	     42195
	maximum total M-bytes		        10	        43


                                     CITATION
                                     --------
                Please cite the following reference when publishing
                           results obtained with NWChem:

          E. Apra, E. J. Bylaska, W. A. de Jong, N. Govind, K. Kowalski,
       T. P. Straatsma, M. Valiev, H. J. J. van Dam, Y. Alexeev, J. Anchell,
       V. Anisimov, F. W. Aquino, R. Atta-Fynn, J. Autschbach, N. P. Bauman,
     J. C. Becca, D. E. Bernholdt, K. Bhaskaran-Nair, S. Bogatko, P. Borowski,
         J. Boschen, J. Brabec, A. Bruner, E. Cauet, Y. Chen, G. N. Chuev,
      C. J. Cramer, J. Daily, M. J. O. Deegan, T. H. Dunning Jr., M. Dupuis,
   K. G. Dyall, G. I. Fann, S. A. Fischer, A. Fonari, H. Fruchtl, L. Gagliardi,
      J. Garza, N. Gawande, S. Ghosh, K. Glaesemann, A. W. Gotz, J. Hammond,
       V. Helms, E. D. Hermes, K. Hirao, S. Hirata, M. Jacquelin, L. Jensen,
   B. G. Johnson, H. Jonsson, R. A. Kendall, M. Klemm, R. Kobayashi, V. Konkov,
      S. Krishnamoorthy, M. Krishnan, Z. Lin, R. D. Lins, R. J. Littlefield,
      A. J. Logsdail, K. Lopata, W. Ma, A. V. Marenich, J. Martin del Campo,
   D. Mejia-Rodriguez, J. E. Moore, J. M. Mullin, T. Nakajima, D. R. Nascimento,
    J. A. Nichols, P. J. Nichols, J. Nieplocha, A. Otero-de-la-Roza, B. Palmer,
    A. Panyala, T. Pirojsirikul, B. Peng, R. Peverati, J. Pittner, L. Pollack,
   R. M. Richard, P. Sadayappan, G. C. Schatz, W. A. Shelton, D. W. Silverstein,
   D. M. A. Smith, T. A. Soares, D. Song, M. Swart, H. L. Taylor, G. S. Thomas,
            V. Tipparaju, D. G. Truhlar, K. Tsemekhman, T. Van Voorhis,
      A. Vazquez-Mayagoitia, P. Verma, O. Villa, A. Vishnu, K. D. Vogiatzis,
        D. Wang, J. H. Weare, M. J. Williamson, T. L. Windus, K. Wolinski,
        A. T. Wong, Q. Wu, C. Yang, Q. Yu, M. Zacharias, Z. Zhang, Y. Zhao,
                                and R. J. Harrison
                        "NWChem: Past, present, and future
                         J. Chem. Phys. 152, 184102 (2020)
                               doi:10.1063/5.0004997

                                      AUTHORS
                                      -------
  E. Apra, E. J. Bylaska, N. Govind, K. Kowalski, M. Valiev, D. Mejia-Rodriguez,
       A. Kunitsa, N. P. Bauman, A. Panyala, W. A. de Jong, T. P. Straatsma,
   H. J. J. van Dam, D. Wang, T. L. Windus, J. Hammond, J. Autschbach, A. Woods,
    K. Bhaskaran-Nair, J. Brabec, K. Lopata, S. A. Fischer, S. Krishnamoorthy,
     M. Jacquelin, W. Ma, M. Klemm, O. Villa, Y. Chen, V. Anisimov, F. Aquino,
     S. Hirata, M. T. Hackler, E. Hermes, L. Jensen, J. E. Moore, J. C. Becca,
      V. Konjkov, T. Risthaus, M. Malagoli, A. Marenich, A. Otero-de-la-Roza,
        J. Mullin, P. Nichols, R. Peverati, J. Pittner, Y. Zhao, P.-D. Fan,
        A. Fonari, M. J. Williamson, R. J. Harrison, J. R. Rehr, M. Dupuis,
     D. Silverstein, D. M. A. Smith, J. Nieplocha, V. Tipparaju, M. Krishnan,
     B. E. Van Kuiken, A. Vazquez-Mayagoitia, M. Swart, Q. Wu, T. Van Voorhis,
     A. A. Auer, M. Nooijen, L. D. Crosby, E. Brown, G. Cisneros, G. I. Fann,
   H. Fruchtl, J. Garza, K. Hirao, R. A. Kendall, J. A. Nichols, K. Tsemekhman,
    K. Wolinski, J. Anchell, D. E. Bernholdt, P. Borowski, T. Clark, D. Clerc,
   H. Dachsel, M. J. O. Deegan, K. Dyall, D. Elwood, E. Glendening, M. Gutowski,
   A. C. Hess, J. Jaffe, B. G. Johnson, J. Ju, R. Kobayashi, R. Kutteh, Z. Lin,
   R. Littlefield, X. Long, B. Meng, T. Nakajima, S. Niu, L. Pollack, M. Rosing,
   K. Glaesemann, G. Sandrone, M. Stave, H. Taylor, G. Thomas, J. H. van Lenthe,
                               A. T. Wong, Z. Zhang.

 Total times  cpu:       76.5s     wall:       50.8s
