
     Program PWSCF v.7.5 starts on 18Feb2026 at  7:20:27 

     This program is part of the open-source Quantum ESPRESSO suite
     for quantum simulation of materials; please cite
         "P. Giannozzi et al., J. Phys.:Condens. Matter 21 395502 (2009);
         "P. Giannozzi et al., J. Phys.:Condens. Matter 29 465901 (2017);
         "P. Giannozzi et al., J. Chem. Phys. 152 154105 (2020);
          URL http://www.quantum-espresso.org", 
     in publications or presentations arising from this work. More details at
     http://www.quantum-espresso.org/quote

     Parallel version (MPI & OpenMP), running on       4 processor cores
     Number of MPI processes:                 2
     Threads/MPI process:                     2

     MPI processes distributed on     1 nodes
     6513 MiB available memory on the printing compute node when the environment starts

     Waiting for input...
     Reading input from standard input

     Current dimensions of program PWSCF are:
     Max number of different atomic species (ntypx) = 10
     Max number of k-points (npk) =  40000
     Max angular momentum in pseudopotentials (lmaxx) =  4
     file O.pbe-rrkjus.UPF: wavefunction(s)  2S renormalized

     IMPORTANT: XC functional enforced from input :
     Exchange-correlation= VDW-DF
                           (   1   4   4   0   1   0   0)
     Any further DFT definition will be discarded
     Please, verify this is what you really want


     gamma-point specific algorithms are used

     R & G space division:  proc/nbgrp/npool/nimage =       2
     Subspace diagonalization in iterative solution of the eigenvalue problem:
     a serial algorithm will be used


     Parallelization info
     --------------------
     sticks:   dense  smooth     PW     G-vecs:    dense   smooth      PW
     Min        1538    1024    257                80630    43888    5485
     Max        1539    1025    258                80633    43889    5486
     Sum        3077    2049    515               161263    87777   10971

     Using Slab Decomposition



     bravais-lattice index     =            8
     lattice parameter (alat)  =      15.0000  a.u.
     unit-cell volume          =    3953.7707 (a.u.)^3
     number of atoms/cell      =            6
     number of atomic types    =            2
     number of electrons       =        16.00
     number of Kohn-Sham states=            8
     kinetic-energy cutoff     =      30.0000  Ry
     charge density cutoff     =     180.0000  Ry
     scf convergence threshold =      1.0E-08
     mixing beta               =       0.7000
     number of iterations used =            8  plain     mixing
     Exchange-correlation= VDW-DF
                           (   1   4   4   0   1   0   0)

     celldm(1)=  15.000000  celldm(2)=   0.954545  celldm(3)=   1.227273
     celldm(4)=   0.000000  celldm(5)=   0.000000  celldm(6)=   0.000000

     crystal axes: (cart. coord. in units of alat)
               a(1) = (   1.000000   0.000000   0.000000 )  
               a(2) = (   0.000000   0.954545   0.000000 )  
               a(3) = (   0.000000   0.000000   1.227273 )  

     reciprocal axes: (cart. coord. in units 2 pi/alat)
               b(1) = (  1.000000  0.000000  0.000000 )  
               b(2) = (  0.000000  1.047619  0.000000 )  
               b(3) = (  0.000000  0.000000  0.814815 )  


     PseudoPot. # 1 for O  read from file:
     /usr/share/espresso/pseudo/O.pbe-rrkjus.UPF
     MD5 check sum: 932f1ddd01dba2749558f1893c74a415
     Pseudo is Ultrasoft, Zval =  6.0
     Generated by new atomic code, or converted to UPF format
     Using radial grid of 1269 points,  4 beta functions with: 
                l(1) =   0
                l(2) =   0
                l(3) =   1
                l(4) =   1
     Q(r) pseudized with 0 coefficients 


     PseudoPot. # 2 for H  read from file:
     /usr/share/espresso/pseudo/H.pbe-kjpaw.UPF
     MD5 check sum: a225a3f3a1be5237eb8f6a7e61cbb4ee
     Pseudo is Projector augmented-wave, Zval =  1.0
     Generated using "atomic" code by A. Dal Corso (espresso distribution)
     Shape of augmentation charge: PSQ
     Using radial grid of  929 points,  2 beta functions with: 
                l(1) =   0
                l(2) =   0
     Q(r) pseudized with 0 coefficients 


     atomic species   valence    mass     pseudopotential
     O                 6.00    15.99940     O ( 1.00)
     H                 1.00     1.00794     H ( 1.00)

      2 Sym. Ops. (no inversion) found


                                    s                        frac. trans.

      isym =  1     identity                                     

 cryst.   s( 1) = (     1          0          0      )
                  (     0          1          0      )
                  (     0          0          1      )

 cart.    s( 1) = (  1.0000000  0.0000000  0.0000000 )
                  (  0.0000000  1.0000000  0.0000000 )
                  (  0.0000000  0.0000000  1.0000000 )


      isym =  2     inv. 180 deg rotation - cart. axis [1,0,0]   

 cryst.   s( 2) = (    -1          0          0      )
                  (     0          1          0      )
                  (     0          0          1      )

 cart.    s( 2) = ( -1.0000000  0.0000000  0.0000000 )
                  (  0.0000000  1.0000000  0.0000000 )
                  (  0.0000000  0.0000000  1.0000000 )


     point group C_s (m)    
     there are  2 classes
     the character table:

       E     s    
A'     1.00  1.00
A''    1.00 -1.00

     the symmetry operations in each class and the name of the first element:

     E        1
          identity                                               
     s        2
          inv. 180 deg rotation - cart. axis [1,0,0]             

   Cartesian axes

     site n.     atom                  positions (alat units)
         1        O      tau(   1) = (  -0.0000000   0.0016540  -0.0072484  )
         2        H      tau(   2) = (  -0.0000000   0.0981485  -0.0826521  )
         3        H      tau(   3) = (   0.0000000   0.0490883   0.1065556  )
         4        O      tau(   4) = (   0.0000000   0.1117595   0.3550478  )
         5        H      tau(   5) = (  -0.0975766   0.0656956   0.4133167  )
         6        H      tau(   6) = (   0.0975766   0.0656956   0.4133167  )

   Crystallographic axes

     site n.     atom                  positions (cryst. coord.)
         1        O      tau(   1) = (  0.0000000  0.0017328 -0.0059061  )
         2        H      tau(   2) = (  0.0000000  0.1028222 -0.0673461  )
         3        H      tau(   3) = (  0.0000000  0.0514258  0.0868231  )
         4        O      tau(   4) = (  0.0000000  0.1170814  0.2892982  )
         5        H      tau(   5) = ( -0.0975766  0.0688239  0.3367766  )
         6        H      tau(   6) = (  0.0975766  0.0688239  0.3367766  )

     number of k points=     1
                       cart. coord. in units 2pi/alat
        k(    1) = (   0.0000000   0.0000000   0.0000000), wk =   2.0000000

                       cryst. coord.
        k(    1) = (   0.0000000   0.0000000   0.0000000), wk =   2.0000000

     Dense  grid:    80632 G-vectors     FFT dimensions: (  72,  64,  80)

     Smooth grid:    43889 G-vectors     FFT dimensions: (  54,  50,  72)

     Dynamical RAM for                 wfc:       0.33 MB

     Dynamical RAM for     wfc (w. buffer):       0.33 MB

     Dynamical RAM for           str. fact:       1.23 MB

     Dynamical RAM for           local pot:       0.00 MB

     Dynamical RAM for          nlocal pot:       1.00 MB

     Dynamical RAM for                qrad:       0.62 MB

     Dynamical RAM for          rho,v,vnew:       6.06 MB

     Dynamical RAM for               rhoin:       2.02 MB

     Dynamical RAM for            rho*nmix:       9.84 MB

     Dynamical RAM for           G-vectors:       2.47 MB

     Dynamical RAM for          h,s,v(r/c):       0.01 MB

     Dynamical RAM for          <psi|beta>:       0.00 MB

     Dynamical RAM for                 psi:       0.67 MB

     Dynamical RAM for                hpsi:       0.67 MB

     Dynamical RAM for                spsi:       0.67 MB

     Dynamical RAM for      wfcinit/wfcrot:       0.67 MB

     Dynamical RAM for           addusdens:      28.91 MB

     Dynamical RAM for          addusforce:      32.92 MB

     Dynamical RAM for         addusstress:      30.76 MB

     Estimated static dynamical RAM per process >      22.62 MB

     Estimated max dynamical RAM per process >      65.38 MB

     Estimated total dynamical RAM >     130.76 MB

     Initial potential from superposition of free atoms

     starting charge      16.0000, renormalised to      16.0000

     negative rho (up, down):  1.025E-03 0.000E+00


     %%%%%%%%%%%%%%%%%%%%%%%%%%%%%%%%%%%%%%%%%%%%%%%%%%%%%%%%%%%%%%%%%%%%%%%%
     %                                                                      %
     % You are using vdW-DF, which was implemented by the Thonhauser group. %
     % Please cite the following two papers that made this development      %
     % possible and the two reviews that describe the various versions:     %
     %                                                                      %
     %   T. Thonhauser et al., PRL 115, 136402 (2015).                      %
     %   T. Thonhauser et al., PRB 76, 125112 (2007).                       %
     %   K. Berland et al., Rep. Prog. Phys. 78, 066501 (2015).             %
     %   D.C. Langreth et al., J. Phys.: Condens. Matter 21, 084203 (2009). %
     %                                                                      %
     % If you are calculating stress with vdW-DF, please also cite:         %
     %                                                                      %
     %   R. Sabatini et al., J. Phys.: Condens. Matter 24, 424209 (2012).   %
     %                                                                      %
     %%%%%%%%%%%%%%%%%%%%%%%%%%%%%%%%%%%%%%%%%%%%%%%%%%%%%%%%%%%%%%%%%%%%%%%%

     %%%%%%%%%%%%%%%%%%%%%%%%%%%%%%%%%%%%%%%%%%%%%%%%%%%%%%%%%%%%%%%%%%%%%%%%
     %                                                                      %
     %  vdW-DF NEWS:                                                        %
     %                                                                      %
     %  * vdW-DF3 is now available. DOI: 10.1021/acs.jctc.0c00471           %
     %    use with input_dft = 'vdW-DF3-opt1' or 'vdW-DF3-opt2'             %
     %                                                                      %
     %  * Unscreened and range-separated hybrid vdW-DF-cx functionals       %
     %    DOI: 10.1063/1.4986522 and 10.1088/1361-648X/ac2ad2               %
     %    use with input_dft = 'vdW-DF-cx0'    and 'vdW-DF-ahcx'            %
     %  * Unscreened and range-separated hybrid vdW-DF2-b86r functionals    %
     %    DOI: 10.1063/1.4986522 and DOI: 10.1103/PhysRevX.12.041003        %
     %    use with input_dft = 'vdW-DF2-br0' and 'vdW-DF2-ahbr'             %
     %                                                                      %
     %%%%%%%%%%%%%%%%%%%%%%%%%%%%%%%%%%%%%%%%%%%%%%%%%%%%%%%%%%%%%%%%%%%%%%%%


     Carrying out vdW-DF run using the following parameters:
     Nqs    =  20  Npoints =  1024  r_max =  100.000
     q_mesh =  0.00001000  0.04494208  0.09755937  0.15916263
               0.23128650  0.31572767  0.41458969  0.53033537
               0.66584808  0.82450364  1.01025438  1.22772762
               1.48234092  1.78043706  2.12944203  2.53805004
               3.01644009  3.57652955  4.23227104  5.00000000


     -----------------------------------------------
     Non-local corr. energy    =       0.29734294 Ry
     -----------------------------------------------

     Starting wfcs are   12 randomized atomic wfcs
     Checking if some PAW data can be deallocated... 

     total cpu time spent up to now is       30.3 secs

     Self-consistent Calculation

     iteration #  1     ecut=    30.00 Ry     beta= 0.70
     Davidson diagonalization with overlap

---- Real-time Memory Report at c_bands before calling an iterative solver
           190 MiB given to the printing process from OS
             0 MiB allocation reported by mallinfo(arena+hblkhd)
          6413 MiB available memory on the node where the printing process lives
------------------
     ethr =  1.00E-02,  avg # of iterations =  2.0

     negative rho (up, down):  2.109E-03 0.000E+00


     -----------------------------------------------
     Non-local corr. energy    =       0.30680006 Ry
     -----------------------------------------------


     total cpu time spent up to now is       30.8 secs

     total energy              =     -68.63644206 Ry
     estimated scf accuracy    <       0.99203168 Ry

     iteration #  2     ecut=    30.00 Ry     beta= 0.70
     Davidson diagonalization with overlap

---- Real-time Memory Report at c_bands before calling an iterative solver
           200 MiB given to the printing process from OS
             0 MiB allocation reported by mallinfo(arena+hblkhd)
          6387 MiB available memory on the node where the printing process lives
------------------
     ethr =  6.20E-03,  avg # of iterations =  2.0

     negative rho (up, down):  4.937E-03 0.000E+00


     -----------------------------------------------
     Non-local corr. energy    =       0.30305251 Ry
     -----------------------------------------------


     total cpu time spent up to now is       31.6 secs

     total energy              =     -68.94024780 Ry
     estimated scf accuracy    <       0.74281920 Ry

     iteration #  3     ecut=    30.00 Ry     beta= 0.70
     Davidson diagonalization with overlap

---- Real-time Memory Report at c_bands before calling an iterative solver
           201 MiB given to the printing process from OS
             0 MiB allocation reported by mallinfo(arena+hblkhd)
          6386 MiB available memory on the node where the printing process lives
------------------
     ethr =  4.64E-03,  avg # of iterations =  2.0

     negative rho (up, down):  1.944E-03 0.000E+00


     -----------------------------------------------
     Non-local corr. energy    =       0.30438799 Ry
     -----------------------------------------------


     total cpu time spent up to now is       32.4 secs

     total energy              =     -69.05236836 Ry
     estimated scf accuracy    <       0.01161232 Ry

     iteration #  4     ecut=    30.00 Ry     beta= 0.70
     Davidson diagonalization with overlap

---- Real-time Memory Report at c_bands before calling an iterative solver
           202 MiB given to the printing process from OS
             0 MiB allocation reported by mallinfo(arena+hblkhd)
          6384 MiB available memory on the node where the printing process lives
------------------
     ethr =  7.26E-05,  avg # of iterations =  3.0

     negative rho (up, down):  1.849E-03 0.000E+00


     -----------------------------------------------
     Non-local corr. energy    =       0.30409573 Ry
     -----------------------------------------------


     total cpu time spent up to now is       33.1 secs

     total energy              =     -69.05666084 Ry
     estimated scf accuracy    <       0.00814207 Ry

     iteration #  5     ecut=    30.00 Ry     beta= 0.70
     Davidson diagonalization with overlap

---- Real-time Memory Report at c_bands before calling an iterative solver
           202 MiB given to the printing process from OS
             0 MiB allocation reported by mallinfo(arena+hblkhd)
          6385 MiB available memory on the node where the printing process lives
------------------
     ethr =  5.09E-05,  avg # of iterations =  2.0

     negative rho (up, down):  1.891E-03 0.000E+00


     -----------------------------------------------
     Non-local corr. energy    =       0.30409346 Ry
     -----------------------------------------------


     total cpu time spent up to now is       34.0 secs

     total energy              =     -69.05689690 Ry
     estimated scf accuracy    <       0.00111475 Ry

     iteration #  6     ecut=    30.00 Ry     beta= 0.70
     Davidson diagonalization with overlap

---- Real-time Memory Report at c_bands before calling an iterative solver
           203 MiB given to the printing process from OS
             0 MiB allocation reported by mallinfo(arena+hblkhd)
          6383 MiB available memory on the node where the printing process lives
------------------
     ethr =  6.97E-06,  avg # of iterations =  2.0

     negative rho (up, down):  1.889E-03 0.000E+00


     -----------------------------------------------
     Non-local corr. energy    =       0.30406599 Ry
     -----------------------------------------------


     total cpu time spent up to now is       34.6 secs

     total energy              =     -69.05685264 Ry
     estimated scf accuracy    <       0.00034249 Ry

     iteration #  7     ecut=    30.00 Ry     beta= 0.70
     Davidson diagonalization with overlap

---- Real-time Memory Report at c_bands before calling an iterative solver
           204 MiB given to the printing process from OS
             0 MiB allocation reported by mallinfo(arena+hblkhd)
          6382 MiB available memory on the node where the printing process lives
------------------
     ethr =  2.14E-06,  avg # of iterations =  2.0

     negative rho (up, down):  1.877E-03 0.000E+00


     -----------------------------------------------
     Non-local corr. energy    =       0.30404091 Ry
     -----------------------------------------------


     total cpu time spent up to now is       35.5 secs

     total energy              =     -69.05689168 Ry
     estimated scf accuracy    <       0.00002169 Ry

     iteration #  8     ecut=    30.00 Ry     beta= 0.70
     Davidson diagonalization with overlap

---- Real-time Memory Report at c_bands before calling an iterative solver
           204 MiB given to the printing process from OS
             0 MiB allocation reported by mallinfo(arena+hblkhd)
          6381 MiB available memory on the node where the printing process lives
------------------
     ethr =  1.36E-07,  avg # of iterations =  2.0

     negative rho (up, down):  1.874E-03 0.000E+00


     -----------------------------------------------
     Non-local corr. energy    =       0.30404151 Ry
     -----------------------------------------------


     total cpu time spent up to now is       36.2 secs

     total energy              =     -69.05689520 Ry
     estimated scf accuracy    <       0.00000088 Ry

     iteration #  9     ecut=    30.00 Ry     beta= 0.70
     Davidson diagonalization with overlap

---- Real-time Memory Report at c_bands before calling an iterative solver
           205 MiB given to the printing process from OS
             0 MiB allocation reported by mallinfo(arena+hblkhd)
          6379 MiB available memory on the node where the printing process lives
------------------
     ethr =  5.48E-09,  avg # of iterations =  3.0

     negative rho (up, down):  1.868E-03 0.000E+00


     -----------------------------------------------
     Non-local corr. energy    =       0.30404078 Ry
     -----------------------------------------------


     total cpu time spent up to now is       37.0 secs

     total energy              =     -69.05689567 Ry
     estimated scf accuracy    <       0.00000159 Ry

     iteration # 10     ecut=    30.00 Ry     beta= 0.70
     Davidson diagonalization with overlap

---- Real-time Memory Report at c_bands before calling an iterative solver
           206 MiB given to the printing process from OS
             0 MiB allocation reported by mallinfo(arena+hblkhd)
          6377 MiB available memory on the node where the printing process lives
------------------
     ethr =  5.48E-09,  avg # of iterations =  2.0

     negative rho (up, down):  1.867E-03 0.000E+00


     -----------------------------------------------
     Non-local corr. energy    =       0.30404031 Ry
     -----------------------------------------------


     total cpu time spent up to now is       37.8 secs

     total energy              =     -69.05689586 Ry
     estimated scf accuracy    <       0.00000005 Ry

     iteration # 11     ecut=    30.00 Ry     beta= 0.70
     Davidson diagonalization with overlap

---- Real-time Memory Report at c_bands before calling an iterative solver
           206 MiB given to the printing process from OS
             0 MiB allocation reported by mallinfo(arena+hblkhd)
          6378 MiB available memory on the node where the printing process lives
------------------
     ethr =  3.08E-10,  avg # of iterations =  3.0

     negative rho (up, down):  1.867E-03 0.000E+00


     -----------------------------------------------
     Non-local corr. energy    =       0.30404115 Ry
     -----------------------------------------------


     total cpu time spent up to now is       38.5 secs

     End of self-consistent calculation

          k = 0.0000 0.0000 0.0000 (  5486 PWs)   bands (ev):

   -25.6314 -24.2526 -13.5535 -12.2822  -9.7528  -8.3399  -7.6771  -6.4122

     occupation numbers 
     1.0000   1.0000   1.0000   1.0000   1.0000   1.0000   1.0000   1.0000

     highest occupied level (ev):    -6.4122

!    total energy              =     -69.05689587 Ry
     estimated scf accuracy    <          6.7E-09 Ry

     The total energy is the sum of the following terms:
     one-electron contribution =    -122.47380622 Ry
     hartree contribution      =      64.44927450 Ry
     xc contribution           =     -17.38299218 Ry
     ewald contribution        =       6.35246494 Ry
     one-center paw contrib.   =      -0.00183691 Ry
      -> PAW hartree energy AE =       1.30449876 Ry
      -> PAW hartree energy PS =      -1.30427006 Ry
      -> PAW xc energy AE      =      -1.34586142 Ry
      -> PAW xc energy PS      =       1.34471661 Ry
      -> total E_H with PAW    =      64.44950320 Ry
      -> total E_XC with PAW   =     -17.38413699 Ry

     convergence has been achieved in  11 iterations

     Forces acting on atoms (cartesian axes, Ry/au):

     atom    1 type  1   force =     0.00000000    0.00639649   -0.00126458
     atom    2 type  2   force =     0.00000000   -0.00361535    0.00347915
     atom    3 type  2   force =     0.00000000   -0.00205967   -0.00350567
     atom    4 type  1   force =     0.00000000   -0.00269323    0.00563216
     atom    5 type  2   force =     0.00357887    0.00098588   -0.00217053
     atom    6 type  2   force =    -0.00357887    0.00098588   -0.00217053
     The non-local contrib.  to forces
     atom    1 type  1   force =     0.00000000    2.38070104    0.53316182
     atom    2 type  2   force =     0.00000000   -0.08532118    0.07167244
     atom    3 type  2   force =     0.00000000   -0.03872993   -0.10404327
     atom    4 type  1   force =     0.00000000   -1.58960345    1.87035076
     atom    5 type  2   force =     0.09181257    0.03988677   -0.05076363
     atom    6 type  2   force =    -0.09181257    0.03988677   -0.05076363
     The ionic contribution  to forces
     atom    1 type  1   force =     0.00000000   -4.70114713   -3.35460751
     atom    2 type  2   force =    -0.00000000    2.82811785   -2.66092600
     atom    3 type  2   force =     0.00000000    1.08890148    2.53590865
     atom    4 type  1   force =    -0.00000000    3.35642553   -0.50250843
     atom    5 type  2   force =    -3.10291313   -1.28614886    1.99106664
     atom    6 type  2   force =     3.10291313   -1.28614886    1.99106664
     The local contribution  to forces
     atom    1 type  1   force =     0.00000023    2.32737732    2.82044994
     atom    2 type  2   force =     0.00000001   -2.74584829    2.59301053
     atom    3 type  2   force =     0.00000001   -1.05165872   -2.43512346
     atom    4 type  1   force =    -0.00000001   -1.76892454   -1.36195777
     atom    5 type  2   force =     3.01468776    1.24783608   -1.94221475
     atom    6 type  2   force =    -3.01468776    1.24783607   -1.94221475
     The core correction contribution to forces
     atom    1 type  1   force =     0.00000000    0.00000000    0.00000000
     atom    2 type  2   force =     0.00000000    0.00000000    0.00000000
     atom    3 type  2   force =     0.00000000    0.00000000    0.00000000
     atom    4 type  1   force =     0.00000000    0.00000000    0.00000000
     atom    5 type  2   force =     0.00000000    0.00000000    0.00000000
     atom    6 type  2   force =     0.00000000    0.00000000    0.00000000
     The Hubbard contrib.    to forces
     atom    1 type  1   force =     0.00000000    0.00000000    0.00000000
     atom    2 type  2   force =     0.00000000    0.00000000    0.00000000
     atom    3 type  2   force =     0.00000000    0.00000000    0.00000000
     atom    4 type  1   force =     0.00000000    0.00000000    0.00000000
     atom    5 type  2   force =     0.00000000    0.00000000    0.00000000
     atom    6 type  2   force =     0.00000000    0.00000000    0.00000000
     The SCF correction term to forces
     atom    1 type  1   force =    -0.00000023    0.00004901   -0.00000390
     atom    2 type  2   force =    -0.00000001    0.00002002   -0.00001289
     atom    3 type  2   force =    -0.00000001    0.00001124    0.00001732
     atom    4 type  1   force =    -0.00000001   -0.00000703    0.00001253
     atom    5 type  2   force =    -0.00000834   -0.00000435    0.00000613
     atom    6 type  2   force =     0.00000833   -0.00000435    0.00000613

     Total force =     0.012656     Total SCF correction =     0.000062


     Computing stress (Cartesian axis) and pressure

          total   stress  (Ry/bohr**3)                   (kbar)     P=       -3.03
  -0.00002058   0.00000000   0.00000000           -3.03        0.00        0.00
   0.00000000  -0.00001952   0.00000051            0.00       -2.87        0.08
   0.00000000   0.00000051  -0.00002174            0.00        0.08       -3.20

     kinetic stress (kbar)    778.62      0.00      0.00
                                0.00    800.29     35.62
                                0.00     35.62    752.50

     local   stress (kbar)  -1272.99      0.00     -0.00
                                0.00  -1431.45   -162.39
                               -0.00   -162.39  -2505.10

     nonloc. stress (kbar)    284.91      0.00      0.00
                                0.00    286.94     10.81
                                0.00     10.81    276.04

     hartree stress (kbar)    584.87     -0.00      0.00
                               -0.00    686.01    102.04
                                0.00    102.04   1127.03

     exc-cor stress (kbar)   -207.47     -0.00      0.00
                               -0.00   -208.04     -1.03
                                0.00     -1.03   -205.86

     corecor stress (kbar)      0.00      0.00      0.00
                                0.00      0.00      0.00
                                0.00      0.00      0.00

     ewald   stress (kbar)   -173.91      0.00      0.00
                                0.00   -139.58     15.06
                                0.00     15.06    549.84

     hubbard stress (kbar)      0.00      0.00      0.00
                                0.00      0.00      0.00
                                0.00      0.00      0.00

     DFT-D   stress (kbar)      0.00      0.00      0.00
                                0.00      0.00      0.00
                                0.00      0.00      0.00

     XDM     stress (kbar)      0.00      0.00      0.00
                                0.00      0.00      0.00
                                0.00      0.00      0.00

     dft-nl  stress (kbar)      2.95     -0.00     -0.00
                               -0.00      2.97     -0.04
                               -0.00     -0.04      2.35

     TS-vdW  stress (kbar)      0.00      0.00      0.00
                                0.00      0.00      0.00
                                0.00      0.00      0.00

     MDB     stress (kbar)      0.00      0.00      0.00
                                0.00      0.00      0.00
                                0.00      0.00      0.00

     3D-RISM stress (kbar)      0.00      0.00      0.00
                                0.00      0.00      0.00
                                0.00      0.00      0.00


     Writing all to output data dir /home/miroi/work/projects/Molecular-and-Materials-Modeling-2026-Winter/molecular-modeling/02_quantum_espresso_performance_test/qe_run_tmpdir.ec86db082175/water_vdw.save/ :
     XML data file, charge density, pseudopotentials, collected wavefunctions

     init_run     :     30.37s CPU     30.20s WALL (       1 calls)
     electrons    :     11.68s CPU      8.23s WALL (       1 calls)
     forces       :      0.25s CPU      0.19s WALL (       1 calls)
     stress       :      1.13s CPU      0.86s WALL (       1 calls)

     Called by init_run:
     wfcinit      :      0.03s CPU      0.02s WALL (       1 calls)
     wfcinit:atom :      0.00s CPU      0.00s WALL (       1 calls)
     wfcinit:wfcr :      0.03s CPU      0.02s WALL (       1 calls)
     potinit      :     29.89s CPU     29.80s WALL (       1 calls)
     hinit0       :      0.38s CPU      0.34s WALL (       1 calls)

     Called by electrons:
     c_bands      :      3.45s CPU      2.45s WALL (      11 calls)
     sum_band     :      1.52s CPU      0.99s WALL (      11 calls)
     v_of_rho     :     35.24s CPU     33.74s WALL (      12 calls)
     v_h          :      0.07s CPU      0.03s WALL (      12 calls)
     v_xc         :     35.17s CPU     33.70s WALL (      12 calls)
     newd         :      0.41s CPU      0.22s WALL (      12 calls)
     PAW_pot      :      0.02s CPU      0.02s WALL (      12 calls)
     mix_rho      :      0.49s CPU      0.31s WALL (      11 calls)
     vdW_kernel   :     29.22s CPU     29.23s WALL (       1 calls)

     Called by c_bands:
     init_us_2    :      0.12s CPU      0.09s WALL (      24 calls)
     regterg      :      3.39s CPU      2.40s WALL (      11 calls)

     Called by sum_band:
     sum_band:wei :      0.00s CPU      0.00s WALL (      11 calls)
     sum_band:loo :      0.63s CPU      0.43s WALL (      11 calls)
     sum_band:buf :      0.00s CPU      0.00s WALL (      11 calls)
     sum_band:ini :      0.10s CPU      0.07s WALL (      11 calls)
     sum_band:cal :      0.06s CPU      0.05s WALL (      11 calls)
     sum_band:bec :      0.00s CPU      0.00s WALL (      11 calls)
     addusdens    :      0.43s CPU      0.25s WALL (      11 calls)
                                        0.00s GPU  (      11 calls)
     addusd:skk   :      0.01s CPU      0.01s WALL (      22 calls)
                                        0.00s GPU  (      22 calls)

     Called by *egterg:
     rdiaghg      :      0.31s CPU      0.24s WALL (      36 calls)
     regterg:over :      0.22s CPU      0.12s WALL (      25 calls)
     regterg:upda :      0.05s CPU      0.05s WALL (      25 calls)
     regterg:last :      0.07s CPU      0.09s WALL (      24 calls)
     h_psi        :      2.35s CPU      1.61s WALL (      37 calls)
     s_psi        :      0.13s CPU      0.13s WALL (      37 calls)
     g_psi        :      0.00s CPU      0.00s WALL (      25 calls)

     Called by h_psi:
     h_psi:calbec :      0.20s CPU      0.14s WALL (      37 calls)
     vloc_psi     :      1.85s CPU      1.24s WALL (      37 calls)
                                        0.00s GPU  (      37 calls)
     add_vuspsi   :      0.03s CPU      0.02s WALL (      37 calls)

     General routines
     calbec       :      0.33s CPU      0.24s WALL (      65 calls)
     fft          :      3.58s CPU      2.15s WALL (     781 calls)
     ffts         :      0.45s CPU      0.34s WALL (      23 calls)
     fftw         :      2.24s CPU      1.50s WALL (     312 calls)
     interpolate  :      0.28s CPU      0.22s WALL (      12 calls)

     Parallel routines

     PAW routines
     PAW_pot      :      0.02s CPU      0.02s WALL (      12 calls)
     PAW_symme    :      0.02s CPU      0.01s WALL (      23 calls)

     PWSCF        :     43.46s CPU     39.55s WALL


   This run was terminated on:   7:21: 6  18Feb2026            

=------------------------------------------------------------------------------=
   JOB DONE.
=------------------------------------------------------------------------------=
